16.995005480824748 0.0 0.0 0.0 16.995005480824748 0.0 0.0 0.0 16.995005480824748
17.130341493506748 0.0 0.0 0.0 17.130341493506748 0.0 0.0 0.0 17.130341493506748
16.91239403929705 0.0 0.0 0.0 16.91239403929705 0.0 0.0 0.0 16.91239403929705
16.998901812609855 0.0 0.0 0.0 16.998901812609855 0.0 0.0 0.0 16.998901812609855
17.046036684912323 0.0 0.0 0.0 17.046036684912323 0.0 0.0 0.0 17.046036684912323
17.204228919577528 0.0 0.0 0.0 17.204228919577528 0.0 0.0 0.0 17.204228919577528
17.045308537073627 0.0 0.0 0.0 17.045308537073627 0.0 0.0 0.0 17.045308537073627
17.01460990886262 0.0 0.0 0.0 17.01460990886262 0.0 0.0 0.0 17.01460990886262
17.242459856172236 0.0 0.0 0.0 17.242459856172236 0.0 0.0 0.0 17.242459856172236
17.17772931251481 0.0 0.0 0.0 17.17772931251481 0.0 0.0 0.0 17.17772931251481
17.190875132724727 0.0 0.0 0.0 17.190875132724727 0.0 0.0 0.0 17.190875132724727
17.00596421163254 0.0 0.0 0.0 17.00596421163254 0.0 0.0 0.0 17.00596421163254
17.212290934346797 0.0 0.0 0.0 17.212290934346797 0.0 0.0 0.0 17.212290934346797
17.525238926886164 0.0 0.0 0.0 17.525238926886164 0.0 0.0 0.0 17.525238926886164
17.321902055399107 0.0 0.0 0.0 17.321902055399107 0.0 0.0 0.0 17.321902055399107
17.65962506647917 0.0 0.0 0.0 17.65962506647917 0.0 0.0 0.0 17.65962506647917
17.225019233739324 0.0 0.0 0.0 17.225019233739324 0.0 0.0 0.0 17.225019233739324
17.088849237776955 0.0 0.0 0.0 17.088849237776955 0.0 0.0 0.0 17.088849237776955
17.244033629189882 0.0 0.0 0.0 17.244033629189882 0.0 0.0 0.0 17.244033629189882
17.1546386650283 0.0 0.0 0.0 17.1546386650283 0.0 0.0 0.0 17.1546386650283
17.06643064534506 0.0 0.0 0.0 17.06643064534506 0.0 0.0 0.0 17.06643064534506
17.183220584405895 0.0 0.0 0.0 17.183220584405895 0.0 0.0 0.0 17.183220584405895
17.147414866957067 0.0 0.0 0.0 17.147414866957067 0.0 0.0 0.0 17.147414866957067
17.154977867618857 0.0 0.0 0.0 17.154977867618857 0.0 0.0 0.0 17.154977867618857
17.062902620896967 0.0 0.0 0.0 17.062902620896967 0.0 0.0 0.0 17.062902620896967
17.145445798564783 0.0 0.0 0.0 17.145445798564783 0.0 0.0 0.0 17.145445798564783
17.258128793311588 0.0 0.0 0.0 17.258128793311588 0.0 0.0 0.0 17.258128793311588
17.033404695771715 0.0 0.0 0.0 17.033404695771715 0.0 0.0 0.0 17.033404695771715
17.04738344090758 0.0 0.0 0.0 17.04738344090758 0.0 0.0 0.0 17.04738344090758
16.93159100088449 0.0 0.0 0.0 16.93159100088449 0.0 0.0 0.0 16.93159100088449
16.973732557048933 0.0 0.0 0.0 16.973732557048933 0.0 0.0 0.0 16.973732557048933
17.10885160707551 0.0 0.0 0.0 17.10885160707551 0.0 0.0 0.0 17.10885160707551
17.585215342503744 0.0 0.0 0.0 17.585215342503744 0.0 0.0 0.0 17.585215342503744
17.082584837984466 0.0 0.0 0.0 17.082584837984466 0.0 0.0 0.0 17.082584837984466
17.28808869013973 0.0 0.0 0.0 17.28808869013973 0.0 0.0 0.0 17.28808869013973
17.388035447835883 0.0 0.0 0.0 17.388035447835883 0.0 0.0 0.0 17.388035447835883
16.997129068961872 0.0 0.0 0.0 16.997129068961872 0.0 0.0 0.0 16.997129068961872
17.155041368883857 0.0 0.0 0.0 17.155041368883857 0.0 0.0 0.0 17.155041368883857
17.042532473438605 0.0 0.0 0.0 17.042532473438605 0.0 0.0 0.0 17.042532473438605
17.310378163332793 0.0 0.0 0.0 17.310378163332793 0.0 0.0 0.0 17.310378163332793
17.194468775146657 0.0 0.0 0.0 17.194468775146657 0.0 0.0 0.0 17.194468775146657
16.9913155281509 0.0 0.0 0.0 16.9913155281509 0.0 0.0 0.0 16.9913155281509
17.08665950248879 0.0 0.0 0.0 17.08665950248879 0.0 0.0 0.0 17.08665950248879
17.217382677445574 0.0 0.0 0.0 17.217382677445574 0.0 0.0 0.0 17.217382677445574
17.087730557158498 0.0 0.0 0.0 17.087730557158498 0.0 0.0 0.0 17.087730557158498
17.614899538006338 0.0 0.0 0.0 17.614899538006338 0.0 0.0 0.0 17.614899538006338
17.845510202811933 0.0 0.0 0.0 17.845510202811933 0.0 0.0 0.0 17.845510202811933
17.758498652796778 0.0 0.0 0.0 17.758498652796778 0.0 0.0 0.0 17.758498652796778
17.690931190125365 0.0 0.0 0.0 17.690931190125365 0.0 0.0 0.0 17.690931190125365
17.789034294427612 0.0 0.0 0.0 17.789034294427612 0.0 0.0 0.0 17.789034294427612
17.78977620087372 0.0 0.0 0.0 17.78977620087372 0.0 0.0 0.0 17.78977620087372
17.814912118270513 0.0 0.0 0.0 17.814912118270513 0.0 0.0 0.0 17.814912118270513
17.833528572460395 0.0 0.0 0.0 17.833528572460395 0.0 0.0 0.0 17.833528572460395
17.822249160264338 0.0 0.0 0.0 17.822249160264338 0.0 0.0 0.0 17.822249160264338
18.005282560621286 0.0 0.0 0.0 18.005282560621286 0.0 0.0 0.0 18.005282560621286
17.90547233064489 0.0 0.0 0.0 17.90547233064489 0.0 0.0 0.0 17.90547233064489
17.85529839363485 0.0 0.0 0.0 17.85529839363485 0.0 0.0 0.0 17.85529839363485
17.916278658416676 0.0 0.0 0.0 17.916278658416676 0.0 0.0 0.0 17.916278658416676
17.857873899107908 0.0 0.0 0.0 17.857873899107908 0.0 0.0 0.0 17.857873899107908
17.959297061215363 0.0 0.0 0.0 17.959297061215363 0.0 0.0 0.0 17.959297061215363
17.846918343363363 0.0 0.0 0.0 17.846918343363363 0.0 0.0 0.0 17.846918343363363
17.818371349681524 0.0 0.0 0.0 17.818371349681524 0.0 0.0 0.0 17.818371349681524
17.874657812625255 0.0 0.0 0.0 17.874657812625255 0.0 0.0 0.0 17.874657812625255
17.9161214927858 0.0 0.0 0.0 17.9161214927858 0.0 0.0 0.0 17.9161214927858
17.883354840044547 0.0 0.0 0.0 17.883354840044547 0.0 0.0 0.0 17.883354840044547
17.920933830318564 0.0 0.0 0.0 17.920933830318564 0.0 0.0 0.0 17.920933830318564
17.95421060988867 0.0 0.0 0.0 17.95421060988867 0.0 0.0 0.0 17.95421060988867
17.82621481426374 0.0 0.0 0.0 17.82621481426374 0.0 0.0 0.0 17.82621481426374
17.928977323885537 0.0 0.0 0.0 17.928977323885537 0.0 0.0 0.0 17.928977323885537
17.892708047202195 0.0 0.0 0.0 17.892708047202195 0.0 0.0 0.0 17.892708047202195
17.824210820175704 0.0 0.0 0.0 17.824210820175704 0.0 0.0 0.0 17.824210820175704
17.858639089351186 0.0 0.0 0.0 17.858639089351186 0.0 0.0 0.0 17.858639089351186
17.758165800332726 0.0 0.0 0.0 17.758165800332726 0.0 0.0 0.0 17.758165800332726
17.751376456749547 0.0 0.0 0.0 17.751376456749547 0.0 0.0 0.0 17.751376456749547
17.86289579081518 0.0 0.0 0.0 17.86289579081518 0.0 0.0 0.0 17.86289579081518
17.885208018628198 0.0 0.0 0.0 17.885208018628198 0.0 0.0 0.0 17.885208018628198
17.80707817887805 0.0 0.0 0.0 17.80707817887805 0.0 0.0 0.0 17.80707817887805
17.859421213265133 0.0 0.0 0.0 17.859421213265133 0.0 0.0 0.0 17.859421213265133
17.846657458999648 0.0 0.0 0.0 17.846657458999648 0.0 0.0 0.0 17.846657458999648
17.887199841640445 0.0 0.0 0.0 17.887199841640445 0.0 0.0 0.0 17.887199841640445
17.897498159292212 0.0 0.0 0.0 17.897498159292212 0.0 0.0 0.0 17.897498159292212
17.792488234066532 0.0 0.0 0.0 17.792488234066532 0.0 0.0 0.0 17.792488234066532
17.823242955061623 0.0 0.0 0.0 17.823242955061623 0.0 0.0 0.0 17.823242955061623
17.926293866261975 0.0 0.0 0.0 17.926293866261975 0.0 0.0 0.0 17.926293866261975
17.740313478031712 0.0 0.0 0.0 17.740313478031712 0.0 0.0 0.0 17.740313478031712
17.860637791667138 0.0 0.0 0.0 17.860637791667138 0.0 0.0 0.0 17.860637791667138
17.853838393717 0.0 0.0 0.0 17.853838393717 0.0 0.0 0.0 17.853838393717
17.816849965207506 0.0 0.0 0.0 17.816849965207506 0.0 0.0 0.0 17.816849965207506
17.810689813325062 0.0 0.0 0.0 17.810689813325062 0.0 0.0 0.0 17.810689813325062
17.769154165064183 0.0 0.0 0.0 17.769154165064183 0.0 0.0 0.0 17.769154165064183
17.784693453787487 0.0 0.0 0.0 17.784693453787487 0.0 0.0 0.0 17.784693453787487
17.742448708067414 0.0 0.0 0.0 17.742448708067414 0.0 0.0 0.0 17.742448708067414
17.85694678063887 0.0 0.0 0.0 17.85694678063887 0.0 0.0 0.0 17.85694678063887
17.753427018431918 0.0 0.0 0.0 17.753427018431918 0.0 0.0 0.0 17.753427018431918
17.78238147856419 0.0 0.0 0.0 17.78238147856419 0.0 0.0 0.0 17.78238147856419
17.86578192330954 0.0 0.0 0.0 17.86578192330954 0.0 0.0 0.0 17.86578192330954
17.72101226853422 0.0 0.0 0.0 17.72101226853422 0.0 0.0 0.0 17.72101226853422
17.870233891163423 0.0 0.0 0.0 17.870233891163423 0.0 0.0 0.0 17.870233891163423
17.726552224728476 0.0 0.0 0.0 17.726552224728476 0.0 0.0 0.0 17.726552224728476
17.6487626459233 0.0 0.0 0.0 17.6487626459233 0.0 0.0 0.0 17.6487626459233
17.723306251732435 0.0 0.0 0.0 17.723306251732435 0.0 0.0 0.0 17.723306251732435
17.596282025462042 0.0 0.0 0.0 17.596282025462042 0.0 0.0 0.0 17.596282025462042
17.639272911045893 0.0 0.0 0.0 17.639272911045893 0.0 0.0 0.0 17.639272911045893
17.638436281879486 0.0 0.0 0.0 17.638436281879486 0.0 0.0 0.0 17.638436281879486
17.70367007306206 0.0 0.0 0.0 17.70367007306206 0.0 0.0 0.0 17.70367007306206
17.640837158873786 0.0 0.0 0.0 17.640837158873786 0.0 0.0 0.0 17.640837158873786
17.74341445647266 0.0 0.0 0.0 17.74341445647266 0.0 0.0 0.0 17.74341445647266
17.758853730703585 0.0 0.0 0.0 17.758853730703585 0.0 0.0 0.0 17.758853730703585
17.835989246479237 0.0 0.0 0.0 17.835989246479237 0.0 0.0 0.0 17.835989246479237
17.741809991176932 0.0 0.0 0.0 17.741809991176932 0.0 0.0 0.0 17.741809991176932
17.572931551966235 0.0 0.0 0.0 17.572931551966235 0.0 0.0 0.0 17.572931551966235
17.37822979416509 0.0 0.0 0.0 17.37822979416509 0.0 0.0 0.0 17.37822979416509
17.43224820359382 0.0 0.0 0.0 17.43224820359382 0.0 0.0 0.0 17.43224820359382
17.37468060262866 0.0 0.0 0.0 17.37468060262866 0.0 0.0 0.0 17.37468060262866
16.95236755643887 0.0 0.0 0.0 16.95236755643887 0.0 0.0 0.0 16.95236755643887
17.334265751695078 0.0 0.0 0.0 17.334265751695078 0.0 0.0 0.0 17.334265751695078
17.084304134734406 0.0 0.0 0.0 17.084304134734406 0.0 0.0 0.0 17.084304134734406
17.128077144232204 0.0 0.0 0.0 17.128077144232204 0.0 0.0 0.0 17.128077144232204
16.990311678986654 0.0 0.0 0.0 16.990311678986654 0.0 0.0 0.0 16.990311678986654
17.309104962969492 0.0 0.0 0.0 17.309104962969492 0.0 0.0 0.0 17.309104962969492
17.12707752848562 0.0 0.0 0.0 17.12707752848562 0.0 0.0 0.0 17.12707752848562
17.433362121617403 0.0 0.0 0.0 17.433362121617403 0.0 0.0 0.0 17.433362121617403
17.07311415348656 0.0 0.0 0.0 17.07311415348656 0.0 0.0 0.0 17.07311415348656
17.180076213433857 0.0 0.0 0.0 17.180076213433857 0.0 0.0 0.0 17.180076213433857
16.917850385492383 0.0 0.0 0.0 16.917850385492383 0.0 0.0 0.0 16.917850385492383
17.13461354110979 0.0 0.0 0.0 17.13461354110979 0.0 0.0 0.0 17.13461354110979
17.14893201801342 0.0 0.0 0.0 17.14893201801342 0.0 0.0 0.0 17.14893201801342
16.9387179595266 0.0 0.0 0.0 16.9387179595266 0.0 0.0 0.0 16.9387179595266
16.965115435388107 0.0 0.0 0.0 16.965115435388107 0.0 0.0 0.0 16.965115435388107
16.754576462095358 0.0 0.0 0.0 16.754576462095358 0.0 0.0 0.0 16.754576462095358
17.17643388670876 0.0 0.0 0.0 17.17643388670876 0.0 0.0 0.0 17.17643388670876
17.14292426916698 0.0 0.0 0.0 17.14292426916698 0.0 0.0 0.0 17.14292426916698
17.46076926759245 0.0 0.0 0.0 17.46076926759245 0.0 0.0 0.0 17.46076926759245
17.688549892687774 0.0 0.0 0.0 17.688549892687774 0.0 0.0 0.0 17.688549892687774
17.717951507561104 0.0 0.0 0.0 17.717951507561104 0.0 0.0 0.0 17.717951507561104
17.81053211851697 0.0 0.0 0.0 17.81053211851697 0.0 0.0 0.0 17.81053211851697
17.709410058241073 0.0 0.0 0.0 17.709410058241073 0.0 0.0 0.0 17.709410058241073
17.79860975601277 0.0 0.0 0.0 17.79860975601277 0.0 0.0 0.0 17.79860975601277
17.649227792689437 0.0 0.0 0.0 17.649227792689437 0.0 0.0 0.0 17.649227792689437
17.79467532346866 0.0 0.0 0.0 17.79467532346866 0.0 0.0 0.0 17.79467532346866
16.907331400944734 0.0 0.0 0.0 16.907331400944734 0.0 0.0 0.0 16.907331400944734
17.245371389172597 0.0 0.0 0.0 17.245371389172597 0.0 0.0 0.0 17.245371389172597
17.053138243048426 0.0 0.0 0.0 17.053138243048426 0.0 0.0 0.0 17.053138243048426
17.034317526456125 0.0 0.0 0.0 17.034317526456125 0.0 0.0 0.0 17.034317526456125
16.946812783282784 0.0 0.0 0.0 16.946812783282784 0.0 0.0 0.0 16.946812783282784
17.128811113020188 0.0 0.0 0.0 17.128811113020188 0.0 0.0 0.0 17.128811113020188
17.196055777594506 0.0 0.0 0.0 17.196055777594506 0.0 0.0 0.0 17.196055777594506
17.354549114091267 0.0 0.0 0.0 17.354549114091267 0.0 0.0 0.0 17.354549114091267
17.230811607461963 0.0 0.0 0.0 17.230811607461963 0.0 0.0 0.0 17.230811607461963
17.26498798828627 0.0 0.0 0.0 17.26498798828627 0.0 0.0 0.0 17.26498798828627
17.14707407683489 0.0 0.0 0.0 17.14707407683489 0.0 0.0 0.0 17.14707407683489
17.387998934608504 0.0 0.0 0.0 17.387998934608504 0.0 0.0 0.0 17.387998934608504
17.48737259338801 0.0 0.0 0.0 17.48737259338801 0.0 0.0 0.0 17.48737259338801
17.445417836778113 0.0 0.0 0.0 17.445417836778113 0.0 0.0 0.0 17.445417836778113
17.393585987574305 0.0 0.0 0.0 17.393585987574305 0.0 0.0 0.0 17.393585987574305
17.214729912100097 0.0 0.0 0.0 17.214729912100097 0.0 0.0 0.0 17.214729912100097
16.996266510112253 0.0 0.0 0.0 16.996266510112253 0.0 0.0 0.0 16.996266510112253
17.242994325152676 0.0 0.0 0.0 17.242994325152676 0.0 0.0 0.0 17.242994325152676
17.243919856090088 0.0 0.0 0.0 17.243919856090088 0.0 0.0 0.0 17.243919856090088
17.112278029499603 0.0 0.0 0.0 17.112278029499603 0.0 0.0 0.0 17.112278029499603
17.13316571226773 0.0 0.0 0.0 17.13316571226773 0.0 0.0 0.0 17.13316571226773
17.299227870375574 0.0 0.0 0.0 17.299227870375574 0.0 0.0 0.0 17.299227870375574
17.11495566617387 0.0 0.0 0.0 17.11495566617387 0.0 0.0 0.0 17.11495566617387
17.12819409239525 0.0 0.0 0.0 17.12819409239525 0.0 0.0 0.0 17.12819409239525
17.00015966683411 0.0 0.0 0.0 17.00015966683411 0.0 0.0 0.0 17.00015966683411
16.846283930657442 0.0 0.0 0.0 16.846283930657442 0.0 0.0 0.0 16.846283930657442
17.213943554768484 0.0 0.0 0.0 17.213943554768484 0.0 0.0 0.0 17.213943554768484
17.206893855998796 0.0 0.0 0.0 17.206893855998796 0.0 0.0 0.0 17.206893855998796
17.400212344577305 0.0 0.0 0.0 17.400212344577305 0.0 0.0 0.0 17.400212344577305
17.46261768358123 0.0 0.0 0.0 17.46261768358123 0.0 0.0 0.0 17.46261768358123
17.379525749148346 0.0 0.0 0.0 17.379525749148346 0.0 0.0 0.0 17.379525749148346
17.797345551662012 0.0 0.0 0.0 17.797345551662012 0.0 0.0 0.0 17.797345551662012
17.746215920613686 0.0 0.0 0.0 17.746215920613686 0.0 0.0 0.0 17.746215920613686
17.3794151511118 0.0 0.0 0.0 17.3794151511118 0.0 0.0 0.0 17.3794151511118
17.72793602312832 0.0 0.0 0.0 17.72793602312832 0.0 0.0 0.0 17.72793602312832
17.71242266408823 0.0 0.0 0.0 17.71242266408823 0.0 0.0 0.0 17.71242266408823
17.675840114497536 0.0 0.0 0.0 17.675840114497536 0.0 0.0 0.0 17.675840114497536
17.700625187405194 0.0 0.0 0.0 17.700625187405194 0.0 0.0 0.0 17.700625187405194
17.593491144865183 0.0 0.0 0.0 17.593491144865183 0.0 0.0 0.0 17.593491144865183
17.553096402665517 0.0 0.0 0.0 17.553096402665517 0.0 0.0 0.0 17.553096402665517
17.599338023840282 0.0 0.0 0.0 17.599338023840282 0.0 0.0 0.0 17.599338023840282
17.64807365719802 0.0 0.0 0.0 17.64807365719802 0.0 0.0 0.0 17.64807365719802
17.80047298896338 0.0 0.0 0.0 17.80047298896338 0.0 0.0 0.0 17.80047298896338
17.83396567283449 0.0 0.0 0.0 17.83396567283449 0.0 0.0 0.0 17.83396567283449
17.68956750045944 0.0 0.0 0.0 17.68956750045944 0.0 0.0 0.0 17.68956750045944
17.63826059504631 0.0 0.0 0.0 17.63826059504631 0.0 0.0 0.0 17.63826059504631
17.862605272527794 0.0 0.0 0.0 17.862605272527794 0.0 0.0 0.0 17.862605272527794
17.724430753300187 0.0 0.0 0.0 17.724430753300187 0.0 0.0 0.0 17.724430753300187
17.607338124876172 0.0 0.0 0.0 17.607338124876172 0.0 0.0 0.0 17.607338124876172
17.737994623504704 0.0 0.0 0.0 17.737994623504704 0.0 0.0 0.0 17.737994623504704
17.73234830269157 0.0 0.0 0.0 17.73234830269157 0.0 0.0 0.0 17.73234830269157
17.728411753438632 0.0 0.0 0.0 17.728411753438632 0.0 0.0 0.0 17.728411753438632
17.75762074780812 0.0 0.0 0.0 17.75762074780812 0.0 0.0 0.0 17.75762074780812
17.885704916026846 0.0 0.0 0.0 17.885704916026846 0.0 0.0 0.0 17.885704916026846
17.67674553670103 0.0 0.0 0.0 17.67674553670103 0.0 0.0 0.0 17.67674553670103
17.898458086748164 0.0 0.0 0.0 17.898458086748164 0.0 0.0 0.0 17.898458086748164
17.34233570412247 0.0 0.0 0.0 17.34233570412247 0.0 0.0 0.0 17.34233570412247
17.246105357960584 0.0 0.0 0.0 17.246105357960584 0.0 0.0 0.0 17.246105357960584
16.993756093435827 0.0 0.0 0.0 16.993756093435827 0.0 0.0 0.0 16.993756093435827
16.995543124868437 0.0 0.0 0.0 16.995543124868437 0.0 0.0 0.0 16.995543124868437
16.913210559729542 0.0 0.0 0.0 16.913210559729542 0.0 0.0 0.0 16.913210559729542
