-89751.14350840249
-89754.5181088525
-89752.07945102551
-89752.64865439938
-89751.84000622192
-89753.35165737224
-89753.19423652333
-89753.7906527777
-89751.64460494791
-89754.85225076856
-89753.71457328589
-89751.72019136946
-89753.01874405016
-89754.00172984965
-89753.849776312
-89754.17936004915
-89753.70659001009
-89752.20462801722
-89752.48414049509
-89753.28138859934
-89753.49158048499
-89750.53490049574
-89753.0727227281
-89752.75995861944
-89753.44454955363
-89752.67284436723
-89753.83451807272
-89750.98496617244
-89753.34227339046
-89752.24945958848
-89751.87879319243
-89752.87029343392
-89753.76501598055
-89751.8258632412
-89753.92992921191
-89753.94105485831
-89753.68300576763
-89751.6678615653
-89753.70779044028
-89752.94401533145
-89753.94613195832
-89753.47838296382
-89752.1034443911
-89754.35232893856
-89753.53447855136
-89755.44738767971
-89756.51435202759
-89757.13439361361
-89755.7043379747
-89755.81426434634
-89756.35063174332
-89756.22414901333
-89756.53039844459
-89756.76200051919
-89756.5473108639
-89756.6558534006
-89756.94394236244
-89757.16113995491
-89756.6571482543
-89757.1051649138
-89757.9366441226
-89757.8997665749
-89757.07230648749
-89757.38962346886
-89758.4942682363
-89758.20844897599
-89757.45328382113
-89759.12951159797
-89757.44814005324
-89758.40575436658
-89757.57316071555
-89757.63050176814
-89757.00334875906
-89757.75016777434
-89758.43160722211
-89757.41659484831
-89757.91213550944
-89758.90031296886
-89757.46964697864
-89757.51024350617
-89757.74531911389
-89757.34417909723
-89757.24615144743
-89757.82912840747
-89756.14711535435
-89756.59298258663
-89758.08894283668
-89756.3102745399
-89757.9482131785
-89757.49843281317
-89757.1576113187
-89757.2310357958
-89757.19314816153
-89756.28907238199
-89757.57380059123
-89755.48986260907
-89757.09835839429
-89757.47606070181
-89756.49640584782
-89755.73009042023
-89755.94515110273
-89756.2066656992
-89756.48132284985
-89755.73725667423
-89756.32628925565
-89755.96099574733
-89755.36835425613
-89756.27415891095
-89757.09712326959
-89757.77103196685
-89756.17084667434
-89756.19050880398
-89753.60436595672
-89752.5489048132
-89754.68425897729
-89753.38263957363
-89752.42140247268
-89753.80139936953
-89752.23431509279
-89756.46472472203
-89754.82526537523
-89753.19074829602
-89752.16550961207
-89751.17120986337
-89752.7632741905
-89751.9173124029
-89754.67588086432
-89753.54475193722
-89752.76018556237
-89751.40763787688
-89753.40371615099
-89753.33384929024
-89754.25612349909
-89757.107130256
-89756.29470840382
-89756.57816149824
-89755.69054248337
-89755.96758960988
-89755.88886612395
-89757.06832546202
-89754.03190509745
-89753.12939383643
-89752.78172133185
-89752.68777226031
-89752.08479234805
-89753.78905043536
-89752.323831702
-89753.45988044729
-89753.0427142861
-89752.99392359453
-89752.11459058212
-89753.53357445315
-89754.41902104717
-89753.70475677915
-89753.93327213042
-89752.38988828874
-89754.51684991781
-89751.95689489822
-89754.3733418413
-89752.43979845662
-89753.80891896335
-89753.08157037351
-89752.57010547449
-89752.93094951336
-89753.35231684013
-89751.12750116987
-89754.0360144246
-89754.81759067652
-89755.69354525958
-89754.72974688713
-89753.12830279599
-89757.37158327375
-89756.21267097951
-89754.31397966317
-89755.32399384998
-89757.54823631243
-89757.99470940618
-89756.90912798187
-89756.39728987872
-89755.30052144632
-89756.72929216367
-89756.11133374514
-89756.08039140842
-89756.70537118033
-89756.1462441819
-89757.4500713812
-89756.94798474957
-89756.95076071889
-89758.07993546044
-89757.70392610917
-89755.97426116091
-89756.44573893135
-89758.33444761545
-89757.68361090632
-89757.82788797654
-89757.2012919845
-89752.44761152522
-89753.67557352237
-89752.86239832302
-89754.18496695478
-89752.23870945917
