13.051936764675839 0.0 0.0 0.0 15.553718951792138 0.0 0.0 0.0 14.526022502878329
13.029198549210095 0.0 0.0 0.0 15.526622297924137 0.0 0.0 0.0 14.500716233357885
13.022618759801428 0.0 0.0 0.0 15.518781301061406 0.0 0.0 0.0 14.493393322533402
13.037124036259605 0.0 0.0 0.0 15.53606693440581 0.0 0.0 0.0 14.509536824914766
13.001776586273214 0.0 0.0 0.0 15.493944120553477 0.0 0.0 0.0 14.470197233926912
13.006069271787377 0.0 0.0 0.0 15.499059623734308 0.0 0.0 0.0 14.474974735343043
12.953748462843048 0.0 0.0 0.0 15.43671001445234 0.0 0.0 0.0 14.416744814236543
13.082998937628982 0.0 0.0 0.0 15.590735090994768 0.0 0.0 0.0 14.5605928376448
13.130658224544929 0.0 0.0 0.0 15.647529662367475 0.0 0.0 0.0 14.613634764425033
13.242701973224039 0.0 0.0 0.0 15.781049844749647 0.0 0.0 0.0 14.738332734079963
13.171087892440346 0.0 0.0 0.0 15.695708848575418 0.0 0.0 0.0 14.65863055901256
13.223517711889599 0.0 0.0 0.0 15.758188363386884 0.0 0.0 0.0 14.71698180227041
13.219806592127416 0.0 0.0 0.0 15.753765899899806 0.0 0.0 0.0 14.712851548642286
13.094767309565556 0.0 0.0 0.0 15.604759212695772 0.0 0.0 0.0 14.57369032950789
13.24255750784616 0.0 0.0 0.0 15.780877688392602 0.0 0.0 0.0 14.738171952782306
13.193917655563135 0.0 0.0 0.0 15.72291459786382 0.0 0.0 0.0 14.684038715582437
13.240288925153948 0.0 0.0 0.0 15.77817426603853 0.0 0.0 0.0 14.735647156360836
13.142149836801533 0.0 0.0 0.0 15.661223975369813 0.0 0.0 0.0 14.626424239369898
12.991571403810116 0.0 0.0 0.0 15.481782818921035 0.0 0.0 0.0 14.458839478156431
13.214462960677462 0.0 0.0 0.0 15.747398006517157 0.0 0.0 0.0 14.706904407456376
13.091656276757647 0.0 0.0 0.0 15.601051860230275 0.0 0.0 0.0 14.570227936654655
13.244494296428734 0.0 0.0 0.0 15.783185718673895 0.0 0.0 0.0 14.740327482267395
13.181878874073092 0.0 0.0 0.0 15.708568234776548 0.0 0.0 0.0 14.670640274110909
13.015025596038761 0.0 0.0 0.0 15.509732687261874 0.0 0.0 0.0 14.484942586855379
13.126305212829012 0.0 0.0 0.0 15.642342269718863 0.0 0.0 0.0 14.608790123565921
13.202661250576762 0.0 0.0 0.0 15.733334156426064 0.0 0.0 0.0 14.693769812216901
13.164371575311923 0.0 0.0 0.0 15.687705154496136 0.0 0.0 0.0 14.651155701027653
12.941403816926575 0.0 0.0 0.0 15.421999159151243 0.0 0.0 0.0 14.403005964010264
13.181329058953613 0.0 0.0 0.0 15.707913031644782 0.0 0.0 0.0 14.670028362871834
13.052613053148114 0.0 0.0 0.0 15.55452487056249 0.0 0.0 0.0 14.526775171370662
13.13395552773018 0.0 0.0 0.0 15.651458989329972 0.0 0.0 0.0 14.617304465032026
13.068767245787521 0.0 0.0 0.0 15.573775482692827 0.0 0.0 0.0 14.544753818526765
13.007092700508334 0.0 0.0 0.0 15.50027922224907 0.0 0.0 0.0 14.476113750103746
12.828918205278487 0.0 0.0 0.0 15.28795241794806 0.0 0.0 0.0 14.27781622738264
13.170015779416223 0.0 0.0 0.0 15.694431233998944 0.0 0.0 0.0 14.657437361543492
12.89627399706656 0.0 0.0 0.0 15.36821890055028 0.0 0.0 0.0 14.352779182295258
13.071196698351073 0.0 0.0 0.0 15.576670610294308 0.0 0.0 0.0 14.547457653462844
13.02671194550804 0.0 0.0 0.0 15.523659064511076 0.0 0.0 0.0 14.49794879263372
12.806450399366213 0.0 0.0 0.0 15.261178005466329 0.0 0.0 0.0 14.252810907470634
13.158946979749091 0.0 0.0 0.0 15.681240777880417 0.0 0.0 0.0 14.645118451641954
13.062444107324907 0.0 0.0 0.0 15.566240331372837 0.0 0.0 0.0 14.537716544806182
12.836968578149172 0.0 0.0 0.0 15.297545878240227 0.0 0.0 0.0 14.28677580936534
13.16984009258305 0.0 0.0 0.0 15.694221871689274 0.0 0.0 0.0 14.657241832639379
12.87965730354705 0.0 0.0 0.0 15.348417135833644 0.0 0.0 0.0 14.334285799409654
13.133993099311972 0.0 0.0 0.0 15.651503762594992 0.0 0.0 0.0 14.617346279948267
13.170658200547162 0.0 0.0 0.0 15.69519679376984 0.0 0.0 0.0 14.65815233771696
12.926866260658686 0.0 0.0 0.0 15.404675058635481 0.0 0.0 0.0 14.386826536137479
13.108495753881874 0.0 0.0 0.0 15.621119111490197 0.0 0.0 0.0 14.588969264325293
13.120270475944947 0.0 0.0 0.0 15.635150800503597 0.0 0.0 0.0 14.60207382349817
13.114091273683004 0.0 0.0 0.0 15.627787174931287 0.0 0.0 0.0 14.595196742132762
13.12719899313392 0.0 0.0 0.0 15.643407368938835 0.0 0.0 0.0 14.609784847418466
13.264840630912717 0.0 0.0 0.0 15.807432018205436 0.0 0.0 0.0 14.762971731768
13.191455923189876 0.0 0.0 0.0 15.719981003090988 0.0 0.0 0.0 14.681298955154942
13.20683645875067 0.0 0.0 0.0 15.73830966432754 0.0 0.0 0.0 14.69841656840197
13.30197193726847 0.0 0.0 0.0 15.851680616232153 0.0 0.0 0.0 14.804296647863572
13.065954139747916 0.0 0.0 0.0 15.570423163300656 0.0 0.0 0.0 14.541623000291047
13.019992982493577 0.0 0.0 0.0 15.515652217384963 0.0 0.0 0.0 14.490470989936401
13.170197287198686 0.0 0.0 0.0 15.694647533011642 0.0 0.0 0.0 14.657639368814905
13.210417930096808 0.0 0.0 0.0 15.742577628519832 0.0 0.0 0.0 14.702402531121942
13.195044803016927 0.0 0.0 0.0 15.724257795814408 0.0 0.0 0.0 14.685293163069659
13.175815561619777 0.0 0.0 0.0 15.701342712655492 0.0 0.0 0.0 14.663892171149115
13.042843912704699 0.0 0.0 0.0 15.542883191048022 0.0 0.0 0.0 14.515902704205567
13.224604641875558 0.0 0.0 0.0 15.759483635025623 0.0 0.0 0.0 14.718191490128984
13.133862921718716 0.0 0.0 0.0 15.651348632690837 0.0 0.0 0.0 14.61720140009763
13.18858090341689 0.0 0.0 0.0 15.716554902402935 0.0 0.0 0.0 14.678099230648794
13.133169699575772 0.0 0.0 0.0 15.650522534420755 0.0 0.0 0.0 14.61642988544586
13.134827611769545 0.0 0.0 0.0 15.652498233565918 0.0 0.0 0.0 14.618275042242798
13.191587688314755 0.0 0.0 0.0 15.720138024823237 0.0 0.0 0.0 14.681445601833024
13.188671392719518 0.0 0.0 0.0 15.716662736604603 0.0 0.0 0.0 14.678199939813261
13.060274480770657 0.0 0.0 0.0 15.563654832970295 0.0 0.0 0.0 14.535301880628895
13.122844393886378 0.0 0.0 0.0 15.638218084462125 0.0 0.0 0.0 14.604938439731907
13.04506804451141 0.0 0.0 0.0 15.545533642215313 0.0 0.0 0.0 14.51837802945853
13.165959106936985 0.0 0.0 0.0 15.689596982595559 0.0 0.0 0.0 14.652922528474448
13.233848309351076 0.0 0.0 0.0 15.770499119439181 0.0 0.0 0.0 14.728479137409188
13.440460258580634 0.0 0.0 0.0 16.01671424048511 0.0 0.0 0.0 14.95842584018473
12.903279774127954 0.0 0.0 0.0 15.376567537953026 0.0 0.0 0.0 14.360576191817966
13.106182191126951 0.0 0.0 0.0 15.618362087339973 0.0 0.0 0.0 14.58639440779283
13.004547358136154 0.0 0.0 0.0 15.497245991196333 0.0 0.0 0.0 14.473280936764052
13.098091600788432 0.0 0.0 0.0 15.608720700735958 0.0 0.0 0.0 14.57739006618148
13.123855651531542 0.0 0.0 0.0 15.639423178961456 0.0 0.0 0.0 14.606063908815516
13.132326191105658 0.0 0.0 0.0 15.649517343090599 0.0 0.0 0.0 14.615491111129131
12.916660019841173 0.0 0.0 0.0 15.392512495784308 0.0 0.0 0.0 14.375467602482034
13.224585062318848 0.0 0.0 0.0 15.759460302479061 0.0 0.0 0.0 14.718169699257139
13.392942791156527 0.0 0.0 0.0 15.960088672422618 0.0 0.0 0.0 14.905541749989744
13.139736788731442 0.0 0.0 0.0 15.658348396658695 0.0 0.0 0.0 14.623738661650771
13.173657047786904 0.0 0.0 0.0 15.69877045704965 0.0 0.0 0.0 14.661489874763957
13.098118059648852 0.0 0.0 0.0 15.608752231204283 0.0 0.0 0.0 14.577419513305594
13.164091111391496 0.0 0.0 0.0 15.687370931531905 0.0 0.0 0.0 14.650843561512053
13.166904217431103 0.0 0.0 0.0 15.690723250924078 0.0 0.0 0.0 14.653974379747773
13.17156573945949 0.0 0.0 0.0 15.696278288833344 0.0 0.0 0.0 14.659162374074045
13.20613265306356 0.0 0.0 0.0 15.73747095387013 0.0 0.0 0.0 14.69763327490056
13.131059870046068 0.0 0.0 0.0 15.648008294876627 0.0 0.0 0.0 14.61408177176907
13.157770089637712 0.0 0.0 0.0 15.679838302649378 0.0 0.0 0.0 14.643808643561396
12.89368632051771 0.0 0.0 0.0 15.365135220748224 0.0 0.0 0.0 14.349899253556982
12.810664237476333 0.0 0.0 0.0 15.266199547851558 0.0 0.0 0.0 14.25750065645691
12.880152084236862 0.0 0.0 0.0 15.349006755591299 0.0 0.0 0.0 14.334836460630573
13.016418390451149 0.0 0.0 0.0 15.511392451114434 0.0 0.0 0.0 14.486492683468702
12.805547623048763 0.0 0.0 0.0 15.260102185887126 0.0 0.0 0.0 14.251806171595891
13.24620565552055 0.0 0.0 0.0 15.785225109365072 0.0 0.0 0.0 14.742232122255041
