2.834436899437593 6.826387421237816 10.498437583323188 2.459010990338457 6.958936365051482 11.392121966312013 1.9815189357395566 6.776196198409255 10.00305654419462 10.73846792120028 3.670413449215081 10.868908977226452 11.547361702191067 4.230829678854673 11.01556445429538 10.402171718521643 3.3568511099931557 11.71971252716861 5.777974938291112 14.634853467203223 4.6178953051605465 5.929507924128998 15.394263440338094 5.217821052580489 4.980684329084124 14.88701035952838 4.104647469794816 4.782255734450756 3.0449672498391673 5.2570851939496634 5.087436119882407 3.667458490731558 4.618665369429663 4.021889054351036 3.4517439110470542 5.634877419184235 3.8840997579263536 15.338938890779986 14.096228751185935 3.2546570555130967 15.026744394530999 13.35641887149058 4.751296540444946 15.034987997791568 13.808817272465713 9.76098227302018 11.493468950096043 7.740642961761447 9.23467597492139 11.505569400670575 6.829773093634572 9.726564315771729 10.62496436351363 8.2002173175698 4.54636808130277 9.845473985666308 4.582002479057689 4.4025487900928075 9.221660583579656 5.368121935587791 4.527220890068991 9.202187093926758 3.8258933407306053 7.997013019274239 10.97072322034666 2.4276471862929414 7.100958404568949 11.455547853019954 2.311889559127031 8.645328822249217 11.615051656640029 2.8330690564646552 9.927068168350678 1.8221495670681587 3.777201785436305 10.404795157811344 1.0021263995981344 3.5297514215084926 8.991061575208716 1.7321251384274834 3.48925256692138 0.6032318030024351 7.905924857787243 2.635035935515258 0.6564001726070184 8.778301954007736 3.07825360417012 12.606147864478334 7.900449570314461 2.69579792192953 8.455475350070243 5.665847054739458 5.950876555000126 8.94962167598087 4.828900746060356 6.051730175574452 7.689652960402888 5.762590620426589 6.598781221967017 2.5628913550485124 6.711321546720434 5.903158674188471 1.597309073197794 6.764997636665163 5.949816737734834 2.941541092528523 6.479632701629644 5.031815291359741 6.249476153915027 6.408008893439809 7.6234326540336275 5.969799252921553 5.983531195591668 8.43322962904853 6.623844856136224 7.283916538555145 7.947478308864941 7.14395148427179 1.2536424418281438 2.215930414839458 7.597597650401629 1.4558143319256196 1.3802240401529993 7.12742773232771 0.3240521807996953 2.2799031776978405 8.48779194549958 15.546737470816714 8.419530316220325 9.25176096014635 0.6503088337189442 8.387166733818635 7.825262583387869 0.6700172582336047 8.625262774667204 3.75094389905313 8.742901185920905 6.954392985863698 4.604866861882047 8.692849618815725 7.334756442640911 3.362191962517261 7.865142776172336 6.663174257189222 2.8143108129464633 13.524457336561076 9.310616058599305 2.8132144502582306 12.643152715593544 8.874413805955454 1.8691809160059916 13.817629940169223 9.239946346986967 9.201367432297937 14.266354220945102 11.480047643520928 9.071879167655588 13.6921890811176 10.676061390753661 9.778276089233374 13.68809860413555 12.033374061109948 0.37910394487942145 10.16454293700925 13.632935898593324 0.3417258083727428 9.21559534856511 13.918299528435169 0.12133733013280892 10.725611763487077 14.399634073217591 4.6070595872585125 4.83767425795357 9.29117911436935 3.9114435654483493 5.06552061286084 9.920418206569076 4.139539212347825 4.515260095217842 8.510856022956439 10.641974952699032 7.973147552900029 6.839898786176608 10.702666458654775 8.808818687357224 6.348817055018327 9.847190315350861 7.512788775692118 6.642010541725299 10.643071315387267 14.585330503537014 2.9346196504622157 10.792228848733982 14.678356877633567 1.99098028470027 11.2667581136873 13.867618857977932 3.316857365358836 3.7942502252383252 6.277823655374226 3.383967813815446 4.1914859206712345 6.933786588099627 2.7918144947388677 4.42982733793098 5.462373886546544 3.388558179975582 7.586921166128124 8.44871836240717 1.7673953871466668 7.687316663722011 9.342327044162761 2.031566587263706 8.24943747630307 8.302202541061625 1.1324382414503344 5.304842230571612 8.065662291075403 10.790207103729132 5.527403856282865 8.814076007486035 11.349386009763435 4.388361334829605 8.03778988011444 10.727658307171778 9.892297808809582 9.237292888242708 9.246221718183422 8.916326185294182 9.094836219230977 9.103286043092428 10.353918708302638 8.844404792946111 8.505815364977922 7.700903729894038 12.594547303081892 9.191385311060312 8.47305630889226 12.090715134898197 8.798165696569894 7.781590802973264 13.48855928968351 8.81351999497986 4.471019250360297 0.6564249712868714 9.331256391398961 3.578854112810879 0.9203821196409696 9.086623940618644 4.377136669211984 15.2357868241414 9.330239645524994 5.054819329907482 8.37113634508426 2.220680014628124 5.952283553783357 8.195410289259371 1.8131241527953852 4.648486434549594 8.790013456866678 1.4255142607264246 0.3676091041707714 7.491356190330844 0.0688306937221945 0.44376454480530203 7.892735875686538 0.9358499699007871 12.666565279762018 6.833511168323976 0.013389981926880942 0.06713002636175724 9.848102645730714 9.359291951569485 0.9584676711202937 10.10582749427968 9.193768594713543 12.730689445086872 10.409125790429863 10.035652451070723 3.09486219370317 12.787817772305859 1.035119085351882 3.3080786326909144 13.67097315790662 0.695896638450604 2.9325483080976613 12.281030645638642 0.2121252970742176 11.217278221412416 15.22850775900774 0.41322562316331346 10.849304968205908 14.580633111495409 14.246979926011617 12.1738938227058 15.043386919099637 0.5344924728375932 1.1373483800612054 3.120745489501199 0.569288936252219 1.2489907315652131 3.8304771809223594 1.201188013164588 1.9796264049086785 3.075483983188656 0.02768446307155392 0.49445696200562655 10.406450143393105 3.227144878006836 0.40970943139890986 11.235323829183256 2.7181102078287434 1.0592012138763853 10.667892183532649 3.9401408588128417 2.989624427569589 4.153558297626763 6.9354650671675655 2.1145834310554266 3.788496931512456 7.00715152465387 2.869233362852219 5.056717081513066 6.63672320214193 10.752146350929662 12.710017787638979 13.70816595691124 11.365378547881193 12.112630641919765 13.306231564243049 9.868595491644932 12.264077484975006 13.712785037332257 8.280709916791233 5.92492538913092 3.3200681418029454 8.154993661873876 5.8057377129832535 4.3177882075493255 7.854577233361332 6.787410422477464 3.1216578198810496 8.725245831059327 6.891651020642225 13.782815204043127 7.823200377379051 6.736176349901406 13.499877929245837 9.06309521421296 7.608288491805574 13.209836485267534 12.848600641818953 1.5654192761006613 4.472127359791618 0.652795227672615 1.4059650698402932 4.024144429023972 12.621731876975359 2.520107106333905 4.381499931672414 5.876373489560003 1.3449198563982276 7.007950303183868 5.3562668614244355 1.973425429751781 6.412746746485386 5.271377064706983 1.1983100611079769 7.765946751567124 10.956174226435074 7.796395614845436 2.7492390770124953 10.321432437695359 7.112746913854805 2.894615464278484 10.790010019483987 8.50216082268381 3.420951781831831 6.7053803051051535 8.988682207136515 8.534228126120944 6.40976698932201 9.937551483960066 8.331983145177587 6.285825797804649 8.748531791441186 9.41802044623582 9.104926671543748 9.078504330757337 12.049497118595351 9.270594904897779 8.832164686648198 11.035391651434598 8.146170552620955 9.238350095120646 12.244000995843582 12.38288143418179 13.25355916823552 4.6186953888842215 12.445256639980176 12.555056058013012 5.354976024878408 12.134163727194128 14.015845788233324 5.0426653663922165 2.1811222046817442 13.092686216448833 3.8505732479589305 2.341373884278434 13.227537521907788 2.890896967494228 1.3189634697543169 13.525950478126953 3.938048633349464 10.88425805486171 10.04933610157481 4.831806107184172 10.270138326210184 10.727369859369277 4.694200843067871 11.655040180499643 10.18591417826773 4.177393744546413 8.869391420688407 14.629969432465883 5.482964621986497 9.74239631506728 15.076750279857503 5.58416672927244 8.166140015870909 15.085414155481892 5.964211718792594 11.455358599936867 15.514509628557377 6.216600935592161 11.613300086726209 0.3387147265611321 7.0408072487952635 11.78845707810816 0.5509705430029964 5.524480222447577 4.397262755703114 1.1804615375822827 3.0346901548306615 5.244098516868811 1.1899189709619669 2.5403989524219464 4.530771016868982 2.0537757628624784 3.4820335406968375 5.082554695532418 2.556270107527792 11.028129553818733 5.027475522385486 3.3253228515444047 10.43414504801407 4.7672068513610855 1.8061139575590779 10.485291672613807 8.164952289625322 12.044551739755216 14.28198783080183 7.318991008222858 11.700036732495862 13.900679413802855 8.182650715878223 11.761722796033073 0.7019318540105901 4.227796408750563 9.060229008899439 14.114429677004274 3.7174395773782076 8.365972998900155 13.679375994795718 3.8263840935529565 9.968970106139995 14.006879107675994 4.202945521150619 12.964865989325009 11.56081302822074 3.762520966963398 13.035029285790879 10.694742627844942 5.092852673639748 12.592649551476308 11.393284893877745 2.6192887738086768 6.745742114356237 13.38689383864242 2.732005299708417 5.799453205431063 13.52016977533388 1.748985630340092 7.036363064326891 13.831288791993456 5.589491919472428 11.561935494782503 1.9488982301836022 4.979522706712068 12.20249975251294 1.595349977489416 5.164507806477818 10.795324768134563 2.394470468230812 0.2963768540838766 14.201775848220839 8.858550482011667 12.890836709189445 13.538129240322071 8.296408786331785 12.64278465097678 14.51090574971748 9.495546340230643 12.6955405793796 5.29596430318428 11.437254258450585 12.403764533005273 5.479560676878269 12.354892860983618 12.586726582572497 6.007126486874848 10.769275712739622 7.866428391943657 14.096539387280933 2.7264047136426948 7.343724428391919 14.329751393392163 3.574506512674566 8.795021485003284 14.250116306416169 2.9297108170450206 1.9103597764985438 1.0182129116605974 8.888794429882774 1.602216601421312 1.6405292566003415 8.246918452507488 1.340707996404267 0.2758683458455415 8.742270777375172 5.978661517984768 4.6439052047451925 3.12733671756736 5.825927753964531 4.11629240777626 2.327810311592583 6.891474819495902 5.057261347276153 3.2542067636947154 12.817628395876378 6.351719805754791 6.070382698404851 12.043478870553159 6.964908931314997 6.18820253157958 12.618573308278307 5.61364844403649 5.434926968724107 2.8578390220566567 11.249740998533516 13.242432392143636 3.1851163364309034 11.861764586140637 12.459232653867792 1.8974514110382794 10.947345896407448 13.245003623686276 9.458777729170874 2.9930649181007576 6.318937256182955 10.015899649971061 2.606539641976941 7.008153913397397 9.881112299002256 2.537527526333718 5.568115457439242 0.7927837754421457 14.831078894910714 14.48700765350136 1.0483929050415572 15.355286441577741 13.631236536426565 1.1867212464546213 15.38580317492723 0.6326874138929554 10.99844944961586 2.3186556831458396 8.68361406836104 11.1113878584406 1.476371132329984 9.162900764265085 10.920633802624861 2.8802531130626345 9.466901254613209 11.589349782763028 10.98963678191235 11.62622411451059 10.810867014433938 10.470717880022368 11.508577872094833 12.192244845796935 10.54859487111616 12.224186850641127 12.599608844159233 11.954138363398954 7.299210798055992 11.630398123887934 11.869121962894885 7.575888363980943 13.00194784686713 11.172688889843252 7.73262385181323 11.680974378851053 2.318934994592603 13.806710689871895 12.504812627437392 2.4646115764041796 14.330447061621719 11.485299742875034 1.3770693870369772 14.11502615051442 1.4703789881613214 5.163539352769879 2.2450988831211554 1.1606369508304166 6.076154264842191 2.0053909280821487 2.208231077341976 5.533563065242115 2.7660460559843685 11.686482296165748 0.27742413670789084 10.220771985785149 12.333244918665729 0.8826254769681154 10.700959265325956 11.035151495798129 0.1213229730023678 10.892979359007867 6.1139187386771034 12.038299862044937 5.337457715352861 5.6329287650252695 11.250644192557633 4.9500918945014 5.763970210142615 12.904205808017503 4.996051679430853 4.208335971034431 2.3608056077336834 13.521404488551818 4.561195081467442 2.3412394493297577 12.579944796229572 4.117611958583169 1.4239584698640753 13.70139722250508 1.610113023163941 1.1488301688330909 2.46675078883991 2.5605028506205767 1.0025310096378395 2.4229693721564813 1.3289351494425292 1.7487520006720039 1.7265637081720548 5.847672280614481 11.382430903264241 7.982922148343095 6.555713746224616 11.868391054436062 8.580493326370691 5.874598426160007 11.591440703032731 6.986742211134947 7.805736885987915 4.151070598479415 11.280329517535211 7.20479961346871 3.541566034667877 10.8860500857795 8.640238566910995 3.9554037936654542 10.81511933543187 6.795203733919652 14.537984602923153 13.423601105599396 7.090503803220443 13.946507374170986 14.173434872730022 7.314540297786103 15.36265817546243 13.606265571008386 6.370715594522101 6.032790510135231 12.756594929177401 5.5398031962093075 6.394368314327045 12.374167961197694 6.712872116808077 5.588793640855518 11.960293656777175 1.7429686874915762 3.85698044371671 10.806549433752183 1.0689014132798924 4.480124281447335 11.058851202575427 1.572941107258144 3.586548229533656 9.909277073346749 0.21525776189773982 7.100895755272479 9.15963255929921 0.20656517201246571 6.752508238375044 8.268183973078173 0.3590861894634382 8.033713760262831 9.048158577779468 2.1493798944700524 0.007563597355129649 12.060609537556797 2.285328867810916 14.862000238299906 11.417731171437982 1.3932289899453225 0.5998356890562664 11.685474686647513 0.1842620224689876 1.9745753053807489 11.526560830569203 0.7763618286048306 2.6487208912130207 11.191270932215122 12.848091616285132 2.185220512825852 12.384525978214139 12.590850994590136 12.378583431405183 1.1758267948371464 0.16281246958991935 13.108519520938062 0.9488640560488453 11.819520687608088 12.501753253459752 0.6046557693034611 6.691114538221363 12.342032787689384 11.922641429598437 7.105657101804232 12.508550702126795 11.04476163683796 6.796273992734356 13.208111019227243 12.37015971141726 2.332890125381395 11.059285832069689 8.000731516058496 2.980553331518139 10.33490334163018 7.9746563567900255 2.291854836193254 11.215897326502711 7.018481910959286 12.468619606788947 4.3184434147749124 4.148240938588834 11.61579300664826 4.5050730585730125 3.6436791671399953 0.17441564137371618 4.552666945985402 3.5087469396730997 0.4040409752620111 2.469526935789757 7.205895976156942 12.592130084393075 2.709939695414056 7.514922767353142 0.3136380404551604 2.046993976519553 6.328886747578667 8.848691048979632 1.560862844976113 11.501110859071762 8.174610722831183 2.0074257250237615 10.966175925577845 8.735334978178422 0.631212545038547 11.203312649074212 2.2327165107125078 11.163869696171362 5.348859887310482 3.0805050632620268 10.788760949135607 5.135516844536119 2.241839814511016 12.045407946806979 4.905090121730474 10.429332798928934 4.244252290623466 2.285103069304887 10.263899500436668 3.2809645392559768 2.4613616441497754 9.52860559086189 4.662865753283237 2.2307182591938357 7.588800645022238 2.7332400129263554 8.917337710393443 6.679406950943449 2.3478959370797425 8.685327787658244 7.753881541221858 3.2400114772694537 8.094453558384602 11.651163755280534 5.582697081192737 13.924167679204565 11.554540267411639 4.857690708175877 0.026183490343616198 10.709727556444467 5.717189458390663 13.745948703457623 7.536475430532652 1.6696141924867451 14.012094661607158 6.597584359365696 1.999834718601426 14.060713126055575 7.944074363756714 2.140766921399043 13.245048000271277 8.999806372841048 11.905782242879505 5.110880008699118 8.060432380013799 11.655880725227288 5.060067513680559 8.988908005642543 12.874063665253159 5.089759364626519 5.762821639707322 4.158691624356309 0.2670622041104147 4.882625128171114 3.750235178886809 14.442311296050727 5.984025863995049 4.830208550124176 14.082748710895379 6.2529610210311946 9.598916374213198 12.430094205040653 5.622656890791469 9.278043645209378 13.219408775690747 6.053475219519889 10.548175903946014 12.241197439826529