-44867.8505680438
-44875.5215159321
-44868.28942412697
-44868.282503863884
-44871.27870049689
-44869.74291488993
-44871.23152466491
-44876.80182841403
-44877.83116186704
-44876.82328622289
-44876.710297346064
-44876.075359840346
-44877.23733463979
-44876.24906003572
-44876.567355810555
-44873.21761404817
-44875.78317420467
-44876.80149439429
-44876.20937536166
-44875.67140915983
-44877.382094439956
-44877.32514074141
-44876.06427868456
-44877.87353312103
-44875.757742581365
-44875.4903212098
-44873.02129928801
-44868.6856138487
-44878.23958106496
-44876.248232129365
-44872.93638711706
-44873.90510680433
-44875.35133852248
-44869.917590885525
-44872.72912984311
-44867.89231370808
-44871.26129936113
-44872.49772559528
-44870.39016935644
-44869.162907100035
-44868.676452456035
-44868.614132128365
-44876.39029868282
-44872.703527604426
-44875.40446956582
-44875.606430960244
-44873.69517138599
-44877.08392774211
-44876.45574410187
-44875.234386171534
-44874.30762045168
-44873.12334442653
-44872.054811070266
-44876.07454594786
-44872.68291348452
-44873.149868859015
-44870.775283364645
-44872.28613137097
-44874.79537498348
-44873.615290872025
-44872.50833368117
-44873.90769868866
-44876.549536571896
-44876.004269011544
-44875.376300069125
-44877.496825389586
-44874.45924922147
-44876.353864408564
-44876.60989754387
-44874.88518683621
-44873.4506602309
-44875.96382826919
-44875.1378199091
-44873.95390824439
-44872.4502901667
-44871.21066904397
-44870.35909558875
-44872.57403175792
-44871.20405858249
-44876.44310550252
-44876.22730249346
-44869.588009325285
-44876.14263223171
-44875.96841733302
-44876.49909755076
-44875.09335677998
-44878.069086642725
-44877.2583422363
-44877.1783115155
-44876.77194011027
-44876.85676479663
-44873.13314868814
-44874.14481052424
-44868.94502935902
-44868.72612452431
-44868.602500486275
-44875.71865261211
-44873.19730129434
-44873.790297758045
