-1.6266102147597343 -0.20408362741991304 0.07976847557889488 0.6662797869806847 -0.26958376600525186 0.09044292457360553 0.7408788025434982 0.09951994717420924 -0.17991731458635465 -0.048921408291051224 0.217861912150928 0.15726975239016786 -0.6680055114225398 -0.3157569221272046 0.3560152554266191 0.4323942457079908 -0.16384997671084686 -0.21666146408492365 -0.3281205858988801 0.3466944922463255 -0.12000649716333525 -0.3272965473356879 -0.38138767275313673 -0.14608056854256776 0.6063396589816267 0.1814725748886165 0.3918772594305509 0.32388829298508737 -1.2854474509649152 -0.3514644028311431 1.2007422002060353 0.973426341731059 -0.9616648303197568 -1.2937359162259525 0.552120749737062 1.0354423784225393 -1.3566353839636507 -1.0154103994723287 -0.9742164417325222 1.2492782001332097 0.9448135630903728 1.291723256671298 0.4908122806355676 -0.24194594968332525 -0.11021085122915214 -1.34167799132287 0.5229788380657833 -1.3905814018917921 1.5387543341870145 -0.16475474791330336 1.8160200422175563 0.03628340781206655 0.17011909754901025 -0.36462356592092043 0.013339911642015735 -1.7785698677908983 0.1320796262777854 -0.05097957637166059 1.0712545030251421 -0.42883841003593237 0.360865641540385 0.7317539574240945 0.36165137066647396 0.4376626931957817 1.5264192096604292 0.0056880515237127845 1.1411561131122863 -0.41421526080611887 0.36452380711826254 -1.3401168174833373 -0.9803726911419052 -0.41118341595833063 -0.3123376120330105 -0.265349159098614 -0.24658627666881403 -0.5688740579360009 0.1508563926646563 -0.009911088466124866 0.6552106736507167 -0.4098073615464104 0.17372378418113307 -2.6468931118330157 0.4208420220940172 0.3532479770941271 0.9045035506174164 0.03551644773905496 -0.4913370427907861 1.970030407130162 -1.012057680950012 -0.2698809855306965 -0.5646471643388469 0.6496354935557843 0.5545512135554256 -0.4968242911576024 -0.05257083211818043 0.46728900070264684 0.8102805901760883 -0.446378990022857 -0.5641961928443574 0.8899894161616415 -0.3937559645105025 0.7737770959334157 -0.506690642428721 -0.17849240921437 -0.704330056885187 -0.49640700111452574 0.42090475701115254 -0.28373717468749843 1.1288294732261333 1.27275237199575 -0.05157915762887247 -0.460001208791982 -0.4371700698300794 0.4111731315456854 -0.7227247573422908 -0.8751400098536348 -0.5919797907155289 0.12809673037063746 2.2298439811225275 0.025102451494582574 -0.2534272108500474 -0.020893812729873694 -0.12317126804456208 0.5129615630390973 -2.13869323184862 0.08747458597390097 1.1973743121750668 1.362069924715661 0.3996486758458537 -0.959891797579734 -1.444928866294421 -0.025634412738652624 -0.3101686294061497 -0.21162158766817105 -0.18475921605968826 -1.530003841687894 0.30312020719980054 -0.8492911671113309 1.3018696010766806 -0.7822020867723174 0.7921990500840292 0.5846151228203416 0.42283642681622663 0.34971836667431383 -0.19890208321897357 0.007988931742747531 0.07434421923953002 -0.09827579035446302 0.19349325349857643 -0.12513327686693934 0.42594231943506 -0.3791816662407534 -0.05870728403322147 0.6077776769797338 -1.6964511468122718 -0.9012433918089059 0.07922648703249581 0.9609359225735321 0.9589343187624711 -0.5068428517358691 0.6027488563065749 -0.21250913247944692 -0.49945607235349465 0.1040124357279241 0.3183002573743485 -0.09685422741658804 0.5416679298348542 -0.05728854930882391 0.14130320175858246 -0.509356105076026 -0.24378068889921886 0.44046313875905435 -0.40170555837488237 0.314122214737259 -0.17710684172075306 0.4467008921386501 -0.033386031659613465 -0.20396741355702294 -0.019940447677668886 -0.19536141705556678 1.5856538269520304 0.8111889609229707 0.4405616120101316 -0.31229081795547503 -0.16598142123155285 -0.5295505777460299 -1.2369075943829988 -0.5500381561764204 -0.6254997768498454 0.7579776670073138 -1.50165125868713 1.8408512423286234 0.34734343868423406 0.04437389812968487 -0.7267076532494388 -1.2290515886736897 1.3634128118968003 -0.9894844236351864 0.0968655402704977 -2.377503721226757 0.8663789758315531 0.4126733702402957 0.2632804494950433 -0.1337770685848664 -0.5754555678082606 2.0795527169327217 -0.3379825662946243 -1.3199709386630816 -1.6821378155133935 0.5678515302087576 0.4087375255209993 1.9222523684149349 0.7532887461720769 1.2543090776888979 -0.671556719108908 -1.560401737253461 2.1542664036965284 -0.8550933756154047 -0.6387656407208161 0.4913331861360441 0.4773137319285005 0.7175180163303707 -2.6889946689887565 -0.37974525205370724 -0.6254619816333745 -1.7112938682520593 0.44967771537878687 0.7419650936291415 0.9446950352346374 -0.12078939807594682 -0.2859843188504623 0.21555434706367393 -0.9429392288857954 -0.5992588408754453 1.0232702618363798 0.3591427453120073 0.22782673667312378 -0.17847312594066037 0.5142118905064305 -0.08699584656526953 0.06220295589130578 -0.09476649164962389 -0.01479926979636161 0.7880798857093331 -0.9891429811353674 -0.23694849646873384 -1.1765558327678187 0.08353102794512064 -0.14553832288585258 0.08076220695073187 0.48336559454953526 0.08957440592572316 -0.163054477392745 0.6456793371215138 -1.3699321010725567 -0.17878422942317598 0.07715880587018971 0.8915840143422711 -0.28565084677044356 -0.46960607887159767 0.3480453498472651 -0.5268084962245185 -0.7625534593034544 -1.7712802761080204 0.009466544729538536 -0.056559641562599364 1.4595846685343832 0.5902111288508802 0.8063203199767597 0.14437721269821588 -1.1030891310372357 -0.7486584464889171 -0.17418324031605487 1.2225443836827914 0.8852688707575206 -0.18405396246254752 -0.07668983665357115 0.19345083029641522 0.3750614734247928 0.5692003309271682 0.3544437971744412 0.15818172268147596 0.005258420185461911 0.18460932074538527 -0.06768043406610924 -0.01752926713301497 -0.19216399316419164 -0.06420173148888943 -1.088215813469829 -0.6563244755401858 -1.1563207366678667 1.1889434077988943 0.9785546640965598 1.4759705660915743 -0.33026797125918606 -0.16896647200180578 -0.8268096981793631 0.9292115948870577 -1.401150178546574 -1.849970173910756 0.3854590146090329 0.9529801580615651 0.5798249005205498 -1.237551398614585 0.08879793277101482 0.8599147082634481 -0.9504177966510277 0.8226681652071639 -0.7818426465503696 -0.29249898004052854 -0.5435939432129734 -0.1517807042511386 1.0161817304207144 0.2198159505535053 1.46194982633245 0.803669255507158 -0.5701770930181406 0.33493220950407476 -0.8840414261083227 -0.37402866128490425 0.03392930575759318 -0.20940272563998127 1.0300016670229422 -0.2131169412667749 -1.0874431969698626 0.4588254433163259 0.6404857087357163 0.3001675523293798 -0.664046783885108 -1.1101887181964945 0.25789064593803973 0.15344832176154863 0.18198319597644788 -0.7201371991207727 0.49151522023986316 0.6397133493460659 0.7242735898866494 0.2840927582547043 -0.36764204103227005 0.4072439716946083 -0.40027191125214934 -0.17317099700145658 1.5252750687536571 0.6576532216539384 0.714995249908517 -0.5115808806414868 -0.18512534114985538 -0.3582027499962412 -0.33259019163445946 -0.18768821678102515 0.027457324880004325 0.0842571074778678 0.14877996975160185 0.8220053348121843 -0.42381216046593456 0.16164345597783128 -0.3399618015081822 0.271329545051765 -0.18343972591731636 -0.29241850451158025 -0.9762951786384217 0.5853034071366178 -0.36476651925668796 1.065855443496758 -0.6440592850195875 0.5572187330852597 0.21047693254076658 -0.44038009212694484 -0.2948463972267826 0.5763608532313492 1.8042734432045895 0.38152574099289777 -0.7486844146308461 -0.7874746480251663 0.3160047764719526 -0.25283868533642906 -0.7327916546599896 -0.42959945657167303 -0.22202144284525635 0.1302160907064854 1.2342313331024162 -0.16356844091468606 -0.38889272288093024 -0.12693921972742656 0.1640626069422852 0.17086754567926057 -1.117514048213314 0.3471207811504667 -0.7810211790903387 -2.3377917473491157 -0.864615713283543 0.7882588344893586 3.123518045224608 0.5957940222552964 -0.09788678244616045 -0.7631406992654922 1.5540063752500786 -4.20617693343195 -0.8648738520409363 -0.11497407694575038 1.2812164436027031 -1.1053941250213284 -0.8685178765514269 2.9048796599189712 2.100752748049105 -0.5485669709475327 1.7243710131509917 -1.6922443078197758 0.46439650964620016 -0.614667976341664 0.4281588674704046 -0.2336402580311073 -0.12481754539873344 0.5144854558827914 3.440651278874049 -2.4239527567179158 -1.0014277120399915 -1.6454900823833725 2.035564741387546 -0.30569311013329936 -1.3525956666766383 0.06964629954322844 1.5077013215359516 0.20627240754111575 -0.2196097480799702 -0.4132061028153142 -0.9283793287937495 -0.030667604287185894 0.5116269033880737 0.7824602255297105 0.14832308471984132 0.20676657356871483 -1.2498564412341828 -1.139095888149148 -2.2528507264303457 0.5654457489807423 1.0333667268404332 2.0004537566170257 0.474865270388008 0.43582975375210103 0.03132606380679121 0.8741802170435268 0.9502226499210862 -0.06489824333528178 -0.20255382103894795 -0.3384623341445203 -0.1781370827574803 -0.6605881359125462 -1.0591664615123566 0.2154175643754935 0.46101345210658023 0.0969511580057685 -0.17466815037227337 -0.2139638626481025 0.1045683082313941 0.07140287722301897 0.20100061761921514 -0.116486914045851 0.1114920319344209 -0.7550458380724997 -0.40307801324237674 0.10009715983391794 1.3016387160127971 0.19278208636416475 0.36343828736356765 -0.150653789735547 -0.09793331941337972 -0.5233709312978793 0.6170403332285825 0.9112246713913339 0.34156822676335374 -0.4692121858672887 -0.02623810776092255 -0.0036681928802065854 -0.2560726188926945 -1.024034907916546 -0.6285534760745046 -0.5374374366932744 -0.38457841177629254 0.19097331529020012 -0.27394615673900563 0.27066311511235963 -0.17104649445928607 -0.10060161027416223 0.20710287386221105 0.4459334178450062 -0.7485694863195367 0.6372587171579863 -0.11256906704868357 -0.1197730409962905 0.18510014433887478 0.11201242321426515 0.9689551933335829 -0.733282478253479 -0.2459229320532023 0.6089945801059706 -1.263928603056533 0.6677617708428499 -1.1355516224413154 0.05005912143992024 0.04192749347172134 -0.06095519952713373 1.0903822249935287 -0.595459007513381 -1.3580785441680805 0.2546155747311938 0.5492244020258734 0.6305113711318238 -0.08577997188029743 -0.03154306491360374 0.757029958382064 0.018762368209167688 -0.6096029031139307 0.4490220840726589 -0.06237187736900225 -0.5270663778715955 -0.15902067364300357 0.4684693941639932 -0.2793061354993383 0.029928412128316196 0.07059889326448486 0.8214378923444885 -1.861539109695278 0.4102794160868224 1.1518079363991778 1.171768952902137 -0.6273190894467712 -1.6378613621935212 0.48599480464226624 0.2292292734476052 0.2825403261659199 0.8630787078137265 0.29358835644996534 0.7705742727254019 -0.6848588355344527 0.84528256017257 -0.8444862895235198 -0.5787620064736743 -1.09287259551555 -0.16835737766289713 -0.6572724412757519 -0.06039624169987017 1.033130442459911 0.9795352828422743 0.6235323687108294 -0.37429939844778765 -0.8219107182158489 -0.7152955547577552 -1.1091947297143414 -0.007235598516490764 0.28731460762611166 -0.07850169305132933 0.5336512301779648 -0.8840625091542452 -0.2890547302456699 -0.17357414597714624 0.7105346430340022 0.4217300811259253 0.03330272791718781 0.9967351916603285 -0.49432106511977447 -0.6843942371932084 -1.059737503524478 1.3849334595773954 1.2028381635031156 0.41877691203487233 -0.520915013558219 0.8856342245167393 -0.7166009038327401 -0.28284037390484196 -0.18761751144408978 0.4527895215348912 0.9569070039197972 -0.7091189936333981 0.28761491247534987 -0.642402723252771 0.1559122099210089 1.2773024532602777 -1.9468994775396535 -0.4388423153261797 -1.6558444290345034 1.5495802211579248 0.40637313905388084 0.23061047006584798 0.764933786610173 0.2683732906369185 -0.6815415982357617 -0.9950210371826992 0.3029003778795106 -0.2944944132040025 -0.14288520153372167 -0.4095731340484172 0.8031542635439523 0.5394542100129871 0.8040099266760282 1.4245436177698498 -0.4030607868511962 -0.9073646742152954 -0.9073680166494051 0.18564624665033191 0.2199625034336986 -0.6728641250664218 0.46403321276951054 -1.5719755581339894 -0.22959437009650782 0.879271258413189 1.1693528872614765 -0.013666441743499045 -0.6773329594710529 -0.05643314328706411 0.4545389001258301 -0.25093915432087105 1.0229501594927994 -1.3517747134372395 1.2628459115153154 -0.5111697612459971 0.4545432710012043 -0.2708209808464626 -0.28923625012885673 1.1529158247513756 -0.44508649646367865 -0.4152128488326978 1.6088582900929518 0.30496137417359737 -0.4470665030081849 -0.9169782860456595 -0.06555516019299032 0.9537126653522155 -0.5970296944346105 0.28225184839122364 1.1784412227159897 0.35989119344225756 0.037991905862741024 -0.31037920275505904 -0.06196461462825457 -0.46713679139549874 -0.9318392623178919 -0.3551397948002013 0.41887538528594953 -0.44887398853056887 -0.6976601010641791 -0.7537818837584115 0.2405333856065148 1.1087406728960583 0.12424418939376666 0.28062151187665213 -0.8345777721605563 0.28323118158535737 0.05611149828158724 0.45083574024263 -1.101428198395045 -0.5073254477992424 0.718042264264957 0.66452680884532 -0.40454817003000004 -0.751141360811771 0.6145265656677933 -0.7402730506386993 -0.06265726981990499 -0.6609223793235134 0.5464535241489556 0.3765478281623321 -0.06233896724853779 0.6820964422979672 -0.20556329728923306 0.6734932740099886 0.5343292300815959 0.22533199527572806 -0.010847998458097446 -1.3369610454631748 -0.3786394205840382 -2.032855827096815 0.48887186907974517 0.34766559791034324 1.6711352937553026 1.0040952315698257 0.3704622840898846 0.8337341932133383 -0.9890889879689804 -0.46067380937897434 -0.57892167197999 -0.30999405150149834 0.5251601619878181 0.16931511359047613 0.5438317702553924 -0.38237343370517374 1.862764754572263 -0.2699997704967479 0.6903501976663271 -0.9934302956568116 -0.4962797315080421 -0.13309315514396433 -0.42407287032648905 -1.4484255665937702 0.08081465745522211 -0.8625223210896241 0.6686372314692678 0.23560329529474908 0.5103477795653341 0.6495051386255072 -0.2924624703756383 0.3189965121104248 1.606177657936995 -0.7606984083725867 -0.26216304806114854 -0.889900455992261 0.9811468503037682 0.06465681674843703 0.012019907279011557 0.19033953836094314 -0.5946979609776403 0.0792236588190184 -1.172735430580464 0.30973771251631815 -0.19272603631524873 -0.3408683724828516 -0.45564678847802814 -0.30604200883228583 1.1680706781149433 0.2526965033316099 -1.771217541190885 0.9932413195744572 -0.7873725752296633 0.00769376909983191 -0.15043113220177964 -0.2438187412260059 1.4953335439992181 -0.7242962155944688 0.6376132722839276 -0.550182909284401 -2.1886016866432887 0.10899240544101874 0.8671112260118873 0.9599519613937079 0.18118975354087505 -0.4081672548398261 0.38243359751914785 0.24728561672868382 1.2580829429090332 0.11900171004790475 -0.2616367432440333 -0.6504250793366153 -0.7303874160938711 -0.041634901931967 -0.28824817518397455 0.2967184174385148 -0.04949810673012766 0.3315486377438226 0.2417639155795062 -1.19467311119382 -0.0689202200104813 -0.4076198669767883 0.5375685629545001 0.003053699224659257 0.23956819347976807 0.11193091924405241 0.11057003434078376 -0.43041629604601356 -0.011848414698153788 -0.01689677575533864 -0.010061240890743962 0.22779845453834963 -0.41216814846910305 0.1371750385228218 0.14383728103434584 0.32739707746929425 0.4621714769704234 -1.1528399772081177 1.0743125731251757 -0.3517649647906974 0.22057853975114272 -1.3813318582690661 -0.18752392328901898 0.8427736777077872 1.4708620412204152 0.07105706384782602 -0.7841779795517656 -1.097349143229665 0.04010175311689223 0.4810451739464748 -0.20251448316058024 0.26270606504881205 0.109172896882941 -0.5469518039416128 -0.7864976288238777 -0.4228780786874395 0.42174499352426076 -0.03933916391925483 0.10090320067498106 0.34381074294062725 0.43542377656293396 0.5991135735468327 -1.1488740505818344 0.22006380489825325 0.5907829421939502 0.8697754031076117 -0.6269082271615978 -0.3930537962371553 0.16872504541496103 -0.4485914242931435 0.01422668512234324 -1.0865037158747288 -0.28592826880154626 -0.09633820701211797 0.0841545204617325 0.9275815154828025 0.052100577349981234 1.1108492345986287 -0.49952574924916554 0.29816440585642195 -1.934314698896107 -0.5503384610256586 -0.8390183244304131 1.6684425774144878 0.7422525429625734 0.2832373522329445 0.19332947422720254 -0.46439702386683246 0.5683513526633115 -0.39879789780978414 0.06150850092744245 0.07461778461589084 0.4664243387095064 -0.40297594044687374 0.26594771191456135 -0.410304355787487 0.7233773033246251 -0.24979527052441494 -1.027040527512089 0.6869175178356943 -0.48865049709755853 1.186485433176705 -0.005838975279280266 -0.12458228945947578 -0.3604820329487211 -0.6070392561518126 0.6383403802579394 -0.2871150900207958 -0.8826972533756025 0.10382680207967926 -0.1826938488902273 0.3032261366500455 -0.11987125713705162 -0.07454193707263292 0.6796340968004037 0.26048925990315136 -1.7833721742755482 0.15290427633262052 -1.4423665048838836 2.2487665290586434 0.44232873121288335 0.6254496403382003 -0.12354870598863885 -0.7316323442445658 0.8949143642670846 -0.9384786220112805 0.6778921744086326 1.870654698843301 1.0106353466811886 1.0065138683136474 -1.611782662828598 0.3313298368647971 -0.6948020627900937 0.48754543695883773