12.917447964704412 0.0 0.0 0.0 15.393451473130987 0.0 0.0 0.0 14.37634453783813
13.224861821998816 0.0 0.0 0.0 15.759790111177727 0.0 0.0 0.0 14.718477716175363
13.20397943100277 0.0 0.0 0.0 15.734905004357948 0.0 0.0 0.0 14.695236867940222
12.982509244117063 0.0 0.0 0.0 15.470983633520177 0.0 0.0 0.0 14.448753838147644
13.13489375892059 0.0 0.0 0.0 15.652577059736728 0.0 0.0 0.0 14.618348660053082
13.212870137280317 0.0 0.0 0.0 15.745499872324071 0.0 0.0 0.0 14.705131690584757
13.152872025397194 0.0 0.0 0.0 15.674001382353302 0.0 0.0 0.0 14.638357391945554
13.096822633842802 0.0 0.0 0.0 15.607208499475155 0.0 0.0 0.0 14.575977782109009
13.023102427769862 0.0 0.0 0.0 15.519357678022361 0.0 0.0 0.0 14.493931615962191
13.24301683366301 0.0 0.0 0.0 15.7814250573227 0.0 0.0 0.0 14.738683154856911
13.111203553657019 0.0 0.0 0.0 15.624345939618442 0.0 0.0 0.0 14.591982883007043
13.049321041734947 0.0 0.0 0.0 15.55060184969366 0.0 0.0 0.0 14.523111360188492
13.12763609350802 0.0 0.0 0.0 15.643928252275543 0.0 0.0 0.0 14.610271313908816
13.103345801290176 0.0 0.0 0.0 15.614982021135676 0.0 0.0 0.0 14.58323767608789
13.177463419446589 0.0 0.0 0.0 15.70330643022269 0.0 0.0 0.0 14.665726138038886
13.177299374512 0.0 0.0 0.0 15.703110941319084 0.0 0.0 0.0 14.665543565869385
13.192977307663892 0.0 0.0 0.0 15.721794005019598 0.0 0.0 0.0 14.682992164791452
13.169773945432006 0.0 0.0 0.0 15.694143045518466 0.0 0.0 0.0 14.657168214829097
13.107415703199623 0.0 0.0 0.0 15.619832037773222 0.0 0.0 0.0 14.587767232718988
13.182723970074832 0.0 0.0 0.0 15.709575317934805 0.0 0.0 0.0 14.671580815255084
13.186991255082996 0.0 0.0 0.0 15.714660551866048 0.0 0.0 0.0 14.676330047432069
13.205166375481106 0.0 0.0 0.0 15.736319461166948 0.0 0.0 0.0 14.696557865927943
13.254666140727704 0.0 0.0 0.0 15.795307291916249 0.0 0.0 0.0 14.75164813466149
13.145284682583819 0.0 0.0 0.0 15.664959705256802 0.0 0.0 0.0 14.629913134634837
13.234556877633063 0.0 0.0 0.0 15.771343505380889 0.0 0.0 0.0 14.729267731392941
13.247509018984724 0.0 0.0 0.0 15.786778300234696 0.0 0.0 0.0 14.743682687588858
13.279253830536643 0.0 0.0 0.0 15.824607925520075 0.0 0.0 0.0 14.779012758157451
13.199380351884969 0.0 0.0 0.0 15.729424378353928 0.0 0.0 0.0 14.690118368826857
13.294433278758266 0.0 0.0 0.0 15.84269695519737 0.0 0.0 0.0 14.795906573261226
13.196359279202479 0.0 0.0 0.0 15.72582422948073 0.0 0.0 0.0 14.686756096195607
13.147044725978803 0.0 0.0 0.0 15.667057112009694 0.0 0.0 0.0 14.63187195733085
12.989135601120067 0.0 0.0 0.0 15.478880124007159 0.0 0.0 0.0 14.456128575910567
13.118817355330808 0.0 0.0 0.0 15.633419147183261 0.0 0.0 0.0 14.60045658744187
12.86770795300522 0.0 0.0 0.0 15.334177345729307 0.0 0.0 0.0 14.32098688921763
13.044619831415934 0.0 0.0 0.0 15.544999516081909 0.0 0.0 0.0 14.51787919517605
13.175996011047825 0.0 0.0 0.0 15.70155775044946 0.0 0.0 0.0 14.664093000535567
13.115191433099172 0.0 0.0 0.0 15.629098211804187 0.0 0.0 0.0 14.596421153553393
13.201450493124048 0.0 0.0 0.0 15.73189132219557 0.0 0.0 0.0 14.692422311817479
13.170848175164963 0.0 0.0 0.0 15.695423182532407 0.0 0.0 0.0 14.658363768068094
13.114999341772538 0.0 0.0 0.0 15.628869300604157 0.0 0.0 0.0 14.59620736743233
13.060714756208005 0.0 0.0 0.0 15.564179499963199 0.0 0.0 0.0 14.535791880774138
13.192425905012787 0.0 0.0 0.0 15.721136910059732 0.0 0.0 0.0 14.68237848672493
13.054728174449904 0.0 0.0 0.0 15.557045416200287 0.0 0.0 0.0 14.529129174472278
13.17458099119269 0.0 0.0 0.0 15.699871501003512 0.0 0.0 0.0 14.662518168337993
13.134004741210555 0.0 0.0 0.0 15.651517636001053 0.0 0.0 0.0 14.617359236682876
13.132838963820552 0.0 0.0 0.0 15.650128403566711 0.0 0.0 0.0 14.616061796394446
13.068378300539383 0.0 0.0 0.0 15.57331198480847 0.0 0.0 0.0 14.544320945802301
13.108383568313702 0.0 0.0 0.0 15.620985422304503 0.0 0.0 0.0 14.588844408519051
13.113404930843767 0.0 0.0 0.0 15.626969274582969 0.0 0.0 0.0 14.594432883733264
13.106250984164037 0.0 0.0 0.0 15.618444066557615 0.0 0.0 0.0 14.586470970315524
13.027937519922588 0.0 0.0 0.0 15.52511955580383 0.0 0.0 0.0 14.499312783422646
13.085612543861041 0.0 0.0 0.0 15.59384967065578 0.0 0.0 0.0 14.563501624564708
13.110782857776377 0.0 0.0 0.0 15.623844605172094 0.0 0.0 0.0 14.591514673733641
13.235265445915047 0.0 0.0 0.0 15.772187891322597 0.0 0.0 0.0 14.730056325376694
13.171686391862995 0.0 0.0 0.0 15.6964220677689 0.0 0.0 0.0 14.659296652960002
13.070460612854255 0.0 0.0 0.0 15.575793432665545 0.0 0.0 0.0 14.546638434470015
13.163011060709247 0.0 0.0 0.0 15.686083857814934 0.0 0.0 0.0 14.649641529905749
13.277263595056027 0.0 0.0 0.0 15.822236203692771 0.0 0.0 0.0 14.776797745481655
12.864682646905063 0.0 0.0 0.0 15.330572151981178 0.0 0.0 0.0 14.317619905046522
13.174090443920544 0.0 0.0 0.0 15.69928692612079 0.0 0.0 0.0 14.661972218656931
13.129427887535504 0.0 0.0 0.0 15.646063495590422 0.0 0.0 0.0 14.612265473153764
13.115153861517378 0.0 0.0 0.0 15.629053438539167 0.0 0.0 0.0 14.596379338637151
13.138298485079137 0.0 0.0 0.0 15.65663440040062 0.0 0.0 0.0 14.622137915983975
13.16646500034817 0.0 0.0 0.0 15.690199845149905 0.0 0.0 0.0 14.653485557487492
13.144669778667712 0.0 0.0 0.0 15.664226937172959 0.0 0.0 0.0 14.629228783470444
13.099267961722603 0.0 0.0 0.0 15.61012254535763 0.0 0.0 0.0 14.578699285319555
13.068044389720912 0.0 0.0 0.0 15.572914070298225 0.0 0.0 0.0 14.543949323095992
13.16100442073517 0.0 0.0 0.0 15.683692587097266 0.0 0.0 0.0 14.647408260013
12.73997198338959 0.0 0.0 0.0 15.181957073193724 0.0 0.0 0.0 14.178824419193612
13.113438269007895 0.0 0.0 0.0 15.62700900297306 0.0 0.0 0.0 14.594469987109647
12.94777299380632 0.0 0.0 0.0 15.42958917348612 0.0 0.0 0.0 14.410094475726806
12.646427211560104 0.0 0.0 0.0 15.070481733044732 0.0 0.0 0.0 14.074714700833702
12.916219744403824 0.0 0.0 0.0 15.391987828791404 0.0 0.0 0.0 14.374977602336791
12.993786010427076 0.0 0.0 0.0 15.484421919119727 0.0 0.0 0.0 14.46130420244471
12.792751588973566 0.0 0.0 0.0 15.24485342079643 0.0 0.0 0.0 14.23756495343224
13.167613314890296 0.0 0.0 0.0 15.691568267475153 0.0 0.0 0.0 14.654763562674006
12.969365540615977 0.0 0.0 0.0 15.455320558075705 0.0 0.0 0.0 14.434125684773145
13.205424084781574 0.0 0.0 0.0 15.736626567928422 0.0 0.0 0.0 14.696844680916806
13.188531160759306 0.0 0.0 0.0 15.716495625122487 0.0 0.0 0.0 14.678043870055463
13.104594130324683 0.0 0.0 0.0 15.616469628631187 0.0 0.0 0.0 14.584626991403553
13.169503006701328 0.0 0.0 0.0 15.69382017352283 0.0 0.0 0.0 14.656866676278177
13.061830261763216 0.0 0.0 0.0 15.565508824507727 0.0 0.0 0.0 14.537033371526753
13.092003946183535 0.0 0.0 0.0 15.601466170584048 0.0 0.0 0.0 14.570614871865503
13.204762084093923 0.0 0.0 0.0 15.735837675610961 0.0 0.0 0.0 14.696107913871492
13.228621626064168 0.0 0.0 0.0 15.76427059072652 0.0 0.0 0.0 14.722662152511855
13.21620554122457 0.0 0.0 0.0 15.749474603160953 0.0 0.0 0.0 14.708843795050473
13.30562961013261 0.0 0.0 0.0 15.856039388173219 0.0 0.0 0.0 14.808367418300989
13.15470827031018 0.0 0.0 0.0 15.676189596854964 0.0 0.0 0.0 14.640401022359013
13.073608688066749 0.0 0.0 0.0 15.579544927786694 0.0 0.0 0.0 14.550142053297007
13.122384009715113 0.0 0.0 0.0 15.637669454313295 0.0 0.0 0.0 14.604426059772338
13.185099975740341 0.0 0.0 0.0 15.712406753990273 0.0 0.0 0.0 14.674225167000456
13.178248189246577 0.0 0.0 0.0 15.704241623913171 0.0 0.0 0.0 14.666599539740087
13.067688782636898 0.0 0.0 0.0 15.572490300803954 0.0 0.0 0.0 14.543553553747909
13.16302005672179 0.0 0.0 0.0 15.686094578174165 0.0 0.0 0.0 14.649651541927948
13.08111982936212 0.0 0.0 0.0 15.58849579713442 0.0 0.0 0.0 14.558501502890278
13.204205389670735 0.0 0.0 0.0 15.73517427455743 0.0 0.0 0.0 14.695488346380149
13.077048869098254 0.0 0.0 0.0 15.583644519278138 0.0 0.0 0.0 14.553970768374212
13.155738578334843 0.0 0.0 0.0 15.677417393291487 0.0 0.0 0.0 14.64154769337198
13.142416542114542 0.0 0.0 0.0 15.661541802490515 0.0 0.0 0.0 14.62672106638096
