8.27866322609941 0.8240453415019814 11.449523387188163 7.851496139354599 1.073204828313979 12.293429304935877 8.52100746736523 15.265071416533775 11.605004249615329 10.601129948017512 8.075005449743083 1.688099894585042 11.544904531214744 7.997299249766607 1.9950636692942953 10.237348778435505 7.364504475850855 2.3265667199020976 4.2508350238810335 2.7653569263255484 7.507399868726007 3.506040809132107 2.2607445720531496 7.843590661200201 4.379479888161525 2.3349553106103764 6.6609634229220065 8.610008683842043 4.449200521806221 8.526122776759253 7.903643876788112 4.1203959260782455 7.96167809525914 8.27476215681407 4.175350624954487 9.41550069483232 1.9087596159525122 10.46987188401376 5.181494522159704 1.2099980187706056 9.832691636513989 4.92335224203305 1.5856296551154312 10.87408854095968 6.016759958963827 9.059032092543132 2.004720753392708 6.930204374339935 9.543539730803266 1.3952652244595822 7.510361839544315 8.894657567192269 2.728428526084052 7.467649006104223 10.886863896996772 12.134043497988984 11.007825463227858 10.216461265076578 12.76460484515164 11.16101993736527 11.688301121070928 12.614811535063335 11.337848174298905 0.3459925519898112 13.283764829321889 11.714566168017562 0.2647340538230416 14.221934531847237 11.88624809368206 0.7797204105558948 12.88782954826614 12.479589106279215 5.599997876554586 14.515133474005303 13.300737064202714 5.784316941562953 13.629178679642882 12.91530754357666 4.633617759419119 14.658539106075061 13.079671734969152 10.842324536414472 10.950087054315222 3.5185100216524363 11.196417620022949 11.814198444169326 3.8515670412503917 10.901770631948041 11.113549607839778 2.5921274903948803 5.754232205253157 11.178047717272342 8.090634270035581 5.851707267594817 12.031015224767296 7.615424610820441 6.581840178903803 10.66798678344843 8.042171880506398 5.43899480512251 7.520117096247259 5.180012890878151 4.9736695770899635 8.278291203598027 5.516477533249197 4.836731711216132 6.897883627787447 4.753394795671841 6.333127635791385 2.6636681924578025 9.498940949960328 6.198204891800047 1.7466030164171882 9.738910964290234 5.633415314439277 2.880253750737205 8.8309293376584 6.850251830162396 5.725240285041174 13.93989497298588 6.07069676294045 5.944458419215783 0.08564526349558318 6.474844957412158 5.204833767142331 13.22796403760396 10.511134088047415 9.428090039618722 11.817011864336038 9.94188799113882 8.777023535556893 11.46510828815758 10.268092304591502 10.321155889085711 11.630234608979988 4.770529790397021 8.245672063997555 9.87797375035426 4.163745589702996 8.312372598308102 9.133307418340184 5.653540698368285 8.048882494724063 9.538893324770362 3.0948526055196357 15.074146368636256 12.100370294634592 2.837704968886265 0.5987379223568107 12.002351407733618 2.8730987763095555 14.505034613186494 11.339775457535238 10.267769368392385 4.669588976766432 11.028238906246479 10.513911339359826 4.47182930715079 11.926113921590728 11.03469117150485 5.308108763620143 10.849412340112705 11.589443891797046 10.806265480420999 8.250211255212353 10.961965939463562 11.394156621721848 7.756887458716308 11.549335215866638 11.220072050735915 9.124710856719673 7.426731697931224 7.6534251592430085 9.116487609345343 7.870368530831033 7.139283603607048 9.823962025179442 7.280867875513782 7.179536954954658 8.274910707465663 8.559695224019519 14.080807537598453 8.837456524114966 9.030639541916713 13.315690301966656 8.444981827368961 8.331211404419829 13.834865787074461 9.736912635090095 3.103804396959176 12.026873890949812 3.342903775296262 2.584768420289388 11.532067171427421 4.023206339336605 3.256449879558088 12.923711635222498 3.7007442105593 4.636575855003037 10.186078135718796 1.8071212601318285 4.006217311773427 10.720385119372459 2.2565980712564797 5.2761316211835165 9.96892291798415 2.4845781103855478 6.115249040970715 0.07850320651589812 10.197544954277065 7.056750153326162 0.33905588243276497 10.467072673039809 5.638052678258606 0.11201235828113783 11.08436521765312 12.709812906119753 0.6368030580192016 11.77283419229675 12.531035426288243 0.5888715756013694 12.731131862240701 11.921822745376854 1.0392745677450899 11.395023382480279 6.28550100514552 10.880030567023443 4.146598969274648 5.695729083421011 10.462129165703715 4.804934121306215 6.179229160739896 11.873724627880277 4.207065543197429 8.791602167329858 13.592141772838481 11.743692429688377 7.91225981458057 13.211693220147618 11.948498567168766 9.306439973411116 13.644695118138085 12.583329130883756 8.097263504331067 9.89960660046075 7.975293085413938 7.960183546529623 9.017869352858806 8.44623352807674 8.069025963080223 9.844313464447833 6.995832760469412 0.14846152120314426 0.34192226413613286 7.274949100856356 12.157617840524567 0.3031169587053643 7.738744903049881 0.695366891856782 1.0483012803828253 7.719019960007778 11.09079164801556 13.374893549478488 4.614519312603304 10.26048392774029 13.819826002409156 4.365248735738811 11.691595070301927 14.13671554413449 4.736502648968398 1.9997630368638548 10.305423729209497 10.045443296237467 2.9175864670999974 10.51720787208042 10.327795457339569 2.1369850865929094 9.559903553884954 9.484866098657987 1.3742743715169377 12.326600019564443 1.2192959978156 1.974315664373387 12.213842324535742 1.9911238476650603 1.8490422540116835 11.874863946790764 0.48857017564503263 3.7798261187440163 5.592087231421001 1.223711181529936 3.879639239167288 5.6216268514266865 2.219506911170627 3.7087284851462834 6.537723218869948 1.0013541074999037 5.660890726260202 14.01547754451696 7.580057930037878 4.743958599933625 14.304319431476527 7.43997466558464 5.815318816678244 14.338478330874393 8.54427954161844 12.719681836364787 8.894891373000432 4.32880473979599 12.12802396723743 9.59115215225637 4.057881936653058 12.314564833295726 8.469138746807756 5.047392036114124 10.040835642548457 12.259006889599533 6.868846496507588 9.449229443212959 11.686940913800244 6.3132580173320765 10.506780908083309 12.941275489220107 6.299628817984517 8.626982210467665 6.936367288763895 11.472986639671252 9.33077644537662 6.2755416527647325 11.322250355881524 8.228995638675121 6.77776815439805 12.352804354505642 11.96044591479132 0.5149863567328531 14.31704440946656 11.398239827023492 15.161181549532843 14.078842793763021 12.749960334394054 0.1280248267781854 0.26673496651277434 6.055751275645287 6.204362639244821 7.340174462609333 5.167495883800353 6.08741839933076 7.779099010491618 5.759050413343991 6.70406377980104 6.530498490223289 2.2050600373669016 1.2991064500655263 3.7227116225680765 2.296993514531703 1.2524085839283232 2.7610786675596386 1.3177605366713558 1.0639120162481706 4.000347623418264 2.9050436251262695 8.306553288000003 0.4741865973363342 3.2631927873956634 8.550616841589925 13.967814745016794 3.3703430182628864 8.94659733371355 1.0544926131923082 9.041761464614323 4.039488782496115 0.47981085418016656 8.321562070790193 4.590080792798879 0.08083222238393432 9.227630623378456 4.490701698627223 1.3088048699974262 0.3150991834374241 9.133858993368277 11.988118963566107 12.246903240856605 9.288917455246995 11.970450478239984 0.8905960334161386 9.379262086312139 11.250685110667469 1.5505200315473646 4.679993981102001 12.000497753950683 0.6251101841215512 4.9554301405638 11.75658791799154 1.6112707893253695 4.672836423184759 13.011945555290207 5.918374216540656 13.1057856477746 0.9745323185459914 5.700831475367068 13.702343104914966 0.2341132434227098 6.318647176622951 12.338606787447635 0.4979159492474962 0.527029293470347 7.233906493438099 13.900173820494414 0.542718825768277 7.974532247728816 13.19254052005035 1.3716779644760322 7.50523232095753 14.330744654777924 9.94757166824329 2.018081269822602 4.3082311204226045 9.653828901525912 1.11741479397318 3.916735566232326 9.676021077129274 1.8355926071908333 5.208364105671085 7.0344158857951875 4.010472319133 6.265872942963152 6.446529911473525 3.4196708768057036 5.733488075566638 6.2964291661236595 4.615834308806111 6.7021519975022645 10.823193795978744 0.13480907044924817 8.63998362184414 10.758593638707257 0.7940884879270355 9.334562549375075 9.993170259558697 14.977968218070254 8.664897503733664 3.6070164998722007 5.645810897506206 8.098756761315787 3.6119638824426827 4.670666291926689 7.936864969463739 3.619908112940976 5.739756913063909 9.00330234678901 5.374950098113506 2.3457465466400906 0.19104001318440295 4.483672023444831 1.9594321808284547 0.38229187251542707 5.2832878873559626 2.941889353700792 13.83519259850797 6.258658548274864 12.053766725867531 12.149134952446147 5.710661653268208 11.718943891132799 11.420756230570767 6.1601113377521335 11.310523896619165 12.809268213234402 0.5413056569609384 6.351385156744699 8.383466356671446 12.848920903251654 6.970894335428754 7.964553519176082 0.7476283028323831 5.563393704257003 7.884692688879094 4.378846933211254 11.808025195786994 10.26478414616774 4.930396126408203 11.784766038981747 9.522949318747527 3.705796224458296 12.425780185037443 9.966905212612064 2.143172544168003 3.977837678594971 4.567437798261549 2.4754093058202007 3.078444863114868 4.2941575608650595 1.222764332594123 4.17390387078244 4.199158773298233 12.137918732378393 3.2475110055665124 0.9568741671782406 11.85772636857599 3.8899874067318128 0.28776457179931314 12.017076006668583 2.351272630879391 0.5599080737749091 5.944919572108123 13.304453413982158 3.7681267861223837 5.1143018330817 13.771198269546028 3.9810980424612623 5.9780140737936955 13.22893284620131 2.809382172478854 2.1237963722209465 13.873057513726907 6.920270856855077 1.7319714231075676 13.000556241419726 7.239338280307258 1.4203638258550029 14.533097768889817 7.110555199333545 10.381585002409395 1.987094895644869 10.647626301966465 10.479499257981853 2.955634810080034 10.483045097448166 9.552207338387584 1.7790671466420835 11.031805413629534 7.239325362859293 0.16024998421573353 5.65226187101978 7.587230988892677 0.6218214018697374 6.426500116659454 6.735028194317233 14.832299449117079 6.144724073736578 8.188744870817102 4.04544501775264 3.8042543045900694 7.983176603906797 4.266434134043211 4.6961924608497405 8.863022737126707 3.3205372141453764 3.8497418058529798 3.385198083422297 14.418523880677277 4.52321620689918 2.860077988761133 14.099771642955435 5.276507518919289 2.954246184423828 15.255112064152987 4.299390419035562 11.542876491884286 5.30766311166536 13.65722762615344 10.764884435866069 5.568320418910742 14.147403440580486 12.283033342813884 6.051812745760849 13.701190868556516 7.83444510804119 1.4549903368691897 14.04856558747855 8.318771902029818 2.2417946758889284 14.30085626367719 6.912307250184837 1.7060564390007773 14.353877220593116 10.085995040633064 5.864043430401109 2.8333621228805317 9.309695170298221 5.583559132274703 3.3511838594416377 10.878661317539185 5.360123451339618 3.159849328443639 1.6559264069393527 4.099153182900289 0.3454241842793642 0.8850402390465192 4.031806776191505 0.9692090382397367 2.347784919928921 4.591927987857832 0.7982853667707679 1.5575212883442344 14.695929950953692 14.343367584929036 1.7718217500786808 13.767381163672457 0.365556026932356 2.1097809411792423 14.663141592784886 13.556320397887559 5.869998373912837 4.038580685904197 11.860816222129149 6.017786896077021 3.4726866667424434 11.141093482134917 4.970840655985692 4.255350963689494 11.709980473990091 9.21808462933254 14.866889791276963 3.8426824205402688 8.78842447513054 14.711030447624433 2.958882256498361 8.49475921310095 15.22723491970036 4.428332384619241 11.716913268312748 11.189132179370855 0.8594507746284398 12.60673167136141 11.540595270573718 1.0808235391235617 11.878626799382882 10.489422441508339 0.20824088689420336 8.274813826605929 7.55050410083943 4.91997432939028 7.371974636008843 7.440856927280629 4.647254709235458 8.498660282386291 8.51601229023728 4.950207616351671 2.494359201984422 8.358505971969247 8.225369711031428 2.0502444235099193 7.5108811209524955 8.176087063556489 2.876870671115249 8.54552090836785 7.383763099021432 2.01155666685563 2.034352087278944 11.20183390595455 1.1755291006215887 1.6928328475193097 11.41066512022074 1.8649048801123407 2.9747849266877084 11.476048074838888 5.865386844989438 3.3793400207703037 2.9041368202791467 6.749870342028678 3.804398980007274 2.994075843478198 5.652274788467745 3.078444863114868 2.013119678059359 6.4184732144941865 10.451923090066803 14.08843141538722 7.305863137325486 10.081972547336854 14.32283788487873 5.804145224188774 10.259844514066037 0.4468545691878162 3.9371993872980102 5.8118130213006225 11.027534905332404 2.920609149923738 5.648951129106426 11.119514885309878 4.027841119666341 6.767408361130357 10.788268891916573 11.192232366882385 4.0679820892166605 6.350579107991701 10.827417801463202 3.453198112998094 6.984675960662297 10.556874771290433 4.8677942983368565 6.311245478939175 8.829359867730687 10.335164861403433 5.130300092385987 9.531720265915562 10.620743801007118 4.431063133118979 7.961049015543258 10.627840646918926 4.777273989979394 5.353675061315638 1.914267615764662 5.120998238106603 5.329480681277746 2.4170805695355777 4.284668403590187 5.858295166056815 1.117140944076328 4.97305212307725 8.85460056105372 9.542802144524483 14.182122957220018 9.261642263869522 9.772364571029225 13.377708261389996 9.556999711582488 9.225512161912244 0.47829434578911023 11.990918174540058 8.16085480891651 7.13988297319261 11.657015062100413 9.04248354995555 7.411941220011639 11.16209596078073 7.705408845087368 7.022759180751839 1.0416565451497815 4.134650329907296 6.892165073573474 1.6008593262658177 4.264509434296469 6.062606565280156 0.10716056482559487 3.924545455271786 6.685503990565352 1.5360266549309662 2.147510223194551 8.573248210424088 1.7123239847532523 2.234590615159013 9.522015387259678 1.2769207331861465 3.021734683060223 8.194259329353235 8.421233099285853 14.502664261484973 1.1695702818754703 8.234627645987732 15.296335515842747 0.6965811319654642 7.537098373341658 14.100141081967225 1.3034932153943397 1.3220362119476732 11.354811366966153 7.647541261695086 1.7008791258565241 11.110716811501117 8.486127774370935 0.4050963351523162 11.039938238868112 7.88223449853141 9.88685966280918 6.442268445389969 6.63001192585378 9.250261992212618 6.945095608353645 6.013237370903852 9.310056858841234 6.028415372262379 7.272878433947613 10.424458012204248 13.62337487027234 14.20038047817333 9.618745112853775 13.669909976565187 0.4977958169814245 11.100221385029794 12.958454403268366 0.003450250351372548 2.8809396672241308 1.5989333347742802 1.0071785847871888 2.561839950152038 0.7888117104334537 0.5602788045314961 2.430598678830641 2.423775682815684 0.6713727322623436 12.598903697894801 0.5599184077332809 4.5603926221416 12.795546008261496 0.5284889650903586 5.527719588212879 11.811779006165537 1.077063270021036 4.433377939794254 12.45362116063577 3.8460538744590558 3.7211447361299577 12.138409595401054 3.362207609534716 2.900053614977504 11.859961087073886 3.6387042914744177 4.464129216419029 2.495198836102128 13.742320022876134 10.002271893394628 1.631964540964826 13.424276953047555 10.300206371976554 2.4281185288214178 14.060872040154523 9.103692877136302 4.002380829727909 9.012728208568854 12.434375454913157 4.976588920329987 9.134305937067856 12.49311754953265 3.9567822384125027 8.706830123316688 11.542941079124109 12.540581420334162 6.034849553093599 10.783612151925297 12.32643596797529 6.99714000620344 10.979705470753492 0.0032461546735302184 5.9873301372658405 9.882157711750029 1.9487649522992017 11.10231271985528 13.271495837245011 1.1634112426858991 10.596852980996397 12.981065104185785 2.6383370769990173 10.621405174342911 12.82535431118485 4.285234187811041 9.80863159793493 6.24984368178375 3.4685027053466757 10.207367381709426 5.926217690944824 4.658819700398258 10.395214201756954 6.903104860254781 4.224651356856578 5.377195150569771 3.789217103414357 4.954913442645212 4.777081520004719 3.5447466502135465 3.469342339464381 4.97941267445507 4.248899990175921