-44871.7959057734
-44871.41860442561
-44872.89474812141
-44876.50758437322
-44875.66875115186
-44876.87197976981
-44872.62939767221
-44874.3243151799
-44871.79929998537
-44875.10116086881
-44874.14559285153
-44876.098191960155
-44873.62912119393
-44872.72046016015
-44868.704162896676
-44873.922147389254
-44875.79927395599
-44875.99290159199
-44878.251192162454
-44875.13308703311
-44875.935953743894
-44877.64284507683
-44876.621942935046
-44874.68615175401
-44877.52480046094
-44874.56026359277
-44870.81222132162
-44877.99482650404
-44875.970270564314
-44878.040297678876
-44878.30762503511
-44868.48250290936
-44873.30505932685
-44869.176429525134
-44870.67219807098
-44876.95829876931
-44876.686991884235
-44875.04364811239
-44876.11979412541
-44877.484594688874
-44876.54158894301
-44876.26010527249
-44876.26498440967
-44874.21888576158
-44876.2873686301
-44877.16896794263
-44875.33891149164
-44877.34036687126
-44877.251806606124
-44875.333466221615
-44876.75720963579
-44876.85587335169
-44873.93109993455
-44875.737123019186
-44877.29459228949
-44878.357359145346
-44874.25957004581
-44874.86441801959
-44869.243389257696
-44874.57705805072
-44871.57959785711
-44875.87263775169
-44875.95050693621
-44875.578098739476
-44873.34257198825
-44875.72938736698
-44871.19543066901
-44871.78378459851
-44870.235033447425
-44874.554129194454
-44871.97616772187
-44870.188110545256
-44869.70575760921
-44873.231211032464
-44870.07500697245
-44873.63009508936
-44871.632466174546
-44874.48347646893
-44871.90832443567
-44876.292344639805
-44874.93782929915
-44875.08338734527
-44872.6863038869
-44873.92781456812
-44873.41709839032
-44874.806807166126
-44874.88120485836
-44872.3053046481
-44877.39020560926
-44872.879635190926
-44870.25984056947
-44870.80419654845
-44870.77209827216
-44874.18828343111
-44875.07824616246
-44875.51024089519
-44877.32617831149
-44875.1525386827
-44874.78661699958
