-0.5273877657667563 -0.8149363437805448 0.038495070751404674 0.18834101987367563 0.241821508290319 0.3207034674992025 0.07586528386974677 0.4821065253314536 -0.12164968919371306 1.085048728595757 -0.46710645237819554 1.7442217293283315 -1.1336973428413957 0.5868237004358862 -0.8161041388364011 0.1566452314322915 0.858414726679154 -1.2546104109794005 -0.23226626050171612 0.4166143571659148 0.5963285546025279 -0.6095350259904728 0.10760580950613725 0.567322654288481 0.7909186407097089 -0.026592919997180005 -0.9566576069131524 -0.042872630993810036 -0.6500473842822225 1.1115457464450211 -0.5287072559091281 0.199128854517799 -0.504745345776892 0.574010864941934 0.41093479028263413 -0.8919339414825219 0.06390811150787057 0.2388940502308789 0.1737752062443588 -0.14075555678522855 -0.16300279821920313 -0.21049595870416005 0.08868429001128597 -0.2119278060546802 -0.0880530841851903 0.6600662019708051 -2.920684488161712 -1.194149377479866 0.1322050961120562 -0.1005537877553623 -0.03550744887799046 -0.7627681464174219 2.4189825571968337 1.6177350237572912 1.9998143232608137 -0.7272319011840249 -0.2837153203106275 -1.677831989049188 0.864935044296175 -0.024502356016738447 -0.16498589008750297 -0.6475570137602009 -0.32950923871629056 0.2577906300250657 -0.8869346884957178 -0.08510120064571797 -0.2040129220829777 0.9558590222712571 0.005481077719229269 0.13235242032319788 -0.03624329860275048 -0.028660601159486127 -1.1028325349417392 0.13643147548857792 -0.8452715044289765 -0.07604757508388194 0.044876548797716256 -0.5950993101811171 0.9926584504877937 0.020024265640726804 -0.0733620578319188 0.2990542646605431 0.5814783769635727 1.4920756991835529 -0.381686177830162 -0.3284422309043569 0.38007692436151314 -0.08739539599653336 -0.5241276069582457 -1.756499261144104 -0.9906668739790616 0.8481562821759393 -0.39369451514494774 0.3278580762661128 -0.38696696661312713 0.4184447255064342 0.9155250985389007 -0.07241512053761723 0.08750029700551383 1.045467109648393 -0.5771715220581027 -0.6755306161549913 -0.7264479718301489 0.8838681337552519 0.20402577759878412 -0.37970539995470737 -0.23004277048783608 -0.4093198803870305 -0.47407517038654484 1.4763976263266638 -0.4590293317970159 -0.3630719051630844 -0.7729144908228044 -0.15735768411828385 0.6332146289955998 -0.5204005358156457 0.49576653931704945 0.2400217360774189 0.025457520841156156 0.38884952834782066 0.0482745187356717 0.0011315425012819221 0.23676749080617934 -0.10996094000187515 -0.4610314498287092 -0.7637497936044008 1.897015705335333 -0.03023925850051566 1.616083089976165 -1.3789574444996187 -0.9208889339539754 -0.7117332913277936 -0.26324291138888856 1.118779030968667 -0.9293735743862187 -0.5459084502787631 0.23007388083608762 0.572021345315731 -0.21751841276858022 -0.022859678206992886 -0.3475069608452918 0.5500600105532913 -0.15413146387150228 -0.08438103465024177 0.8289737957102175 -0.8847122269231023 1.7476672646747706 -0.31304877916742213 0.4687619857037475 -0.8467408898856514 -0.024010246871668327 0.7150407584344718 -0.5492660538970863 0.5807193873103612 1.423326200422981 -0.5635413328691778 -0.003470217936787572 -0.28994176083631357 1.0961849477182348 -0.3929735778185232 -0.8099646015975664 -0.30118699473282967 0.4773029332952232 0.39982402508145337 0.5713443738533643 -0.02360092724839161 -0.12590512203595736 -0.5290029327726761 -0.048830648349457835 -0.34719740002467303 0.2898432875852363 0.13780573012828523 0.3414013621681862 -0.002573417154131052 -0.18901799133604222 -0.012433597777662456 -0.3497019116140816 -0.24736197849257402 -0.7742319240826472 0.5975588274652032 0.09006188708510296 -0.16702477489440268 -0.6245281569651954 -0.4537991937463281 0.07542871055296041 0.08225781765965189 0.19609855233190743 -0.15895253940922946 0.09360512435167105 -0.5762333265145496 -0.4753926036463877 -0.044659804801219866 0.17429456908293853 0.12842300336180465 -0.167353361878415 -0.12840140609524983 0.10222860435462394 -0.06782904382883156 0.5014111391973365 -1.463649582632376 -1.4057794497884692 -0.8008628964066142 1.3893400732855232 0.8366817058774364 0.34510426494107016 0.1257814519738995 0.5642059630363703 -0.06166508110996476 -0.02202638367242013 1.4151950866754142 -0.8987805320907102 -0.25516604791802505 0.014909827232296903 0.7452460783732585 -0.3106324564164456 -1.5619515982390841 0.4222409593240728 -0.48424131228626915 -0.208036441420074 -0.2341547357736806 0.4008372968373161 0.3534811761508558 -0.5510200604737155 0.247549926133664 -0.24512049075656492 0.3073131622352256 -0.9251965601903938 0.6938471550759922 0.15723889915223244 0.43080196152020644 -0.2793989523234608 -0.47507610084723345 -0.31493288356401244 -0.20797267806167408 -0.3805749470438543 0.3946543079550558 0.48318304622508396 0.26692216001268865 -0.32274209519578606 0.10524836501755422 -0.25238694251099114 -0.27430199741652755 0.031124746429262527 0.06117939972279787 0.09579081914908019 -0.2729228576808138 0.09577642097137698 0.5382565901604601 -0.8019571579120576 0.422613255061827 -0.5631847208607076 0.9302680611760301 -0.5039315916263449 0.12948769718089312 -0.13793299973476889 1.274895643590998 -0.12948975406342217 -0.32780922530604834 -0.503211682741185 -0.28684435285791243 0.12974609304860235 0.9001144204107853 0.08072209774141582 0.9001565865026304 -0.35731340541275236 0.19754994006645335 -0.3524403935911672 0.09942635901913843 -0.26810126792245437 -0.3728521244782998 0.44913701238396836 1.1487467809753504 1.143004993395567 -0.27543585391065467 0.32300100528412756 -0.12483374334864954 0.14157393892146586 -1.5181556841000563 -1.2915728471363628 0.32757499780805516 -0.1760506325420968 -0.2326763514559412 0.0032920404877104597 0.08841535262061548 0.3083009800697916 -0.36821951080229487 -0.3178703689257816 0.0966955903515367 0.5409063690784813 0.5344063631764345 0.5264202596471643 -0.05290610397041211 -0.2697290333338645 -0.5777466778352824 -0.3683264686938044 -0.166079637372314 -0.26951717443337453 -0.4079476826298523 0.8049460653370525 2.050162693806379 0.17945991533396188 -0.19652124169162286 -0.2641962764410934 0.07131931637027716 -0.5244518230668839 -1.8876957134859877 1.4949805315351736 0.4997185819862619 -1.3586927807133116 -0.7511133357873129 0.5905356020698346 -0.33282981844909126 -0.8340828348020087 -0.881730775697275 1.7442201866664346 -0.3457352136568498 0.7237282589061407 -0.2162984243185501 0.6723236791819195 0.4730233320832628 0.10019640441594357 -0.721783476474944 -1.3349262744213333 0.025997966725658454 0.193902316011537 0.5541997437532779 0.2128138082040593 -0.4978324207071427 -0.34688655365247356 0.387002704947069 0.3133729952760603 -0.08914811702158194 -0.6037315319348182 -0.88269673915497 1.098568874569379 -0.8663681771982757 -0.6405942092891226 -0.5403229857711856 0.4055241607900241 1.4626522517161131 -0.8070571981427843 0.5334116033633329 -0.7939551135431875 0.3054506551051901 0.052067924339832906 0.48748835846865723 -0.13547579644352797 -0.03495234770546884 0.6091647871352477 -0.1416400162727109 0.052441248518851624 1.0698460527133897 0.35941014004078103 0.3190283937896248 -0.14575095311729092 0.12201195762913825 -0.3526103435101282 -1.0691870789731521 -0.06367311267892906 -0.2625571981757736 0.9240357071130733 0.03992563255034415 -0.04244119988334626 -0.1362422422959073 -0.3255996192492392 0.24450162622564345 -0.2207847422246778 -0.34691997799357027 -0.0814800589533629 -0.7648767081199923 0.6704956248342453 -0.7837822867752436 0.40992717495372627 -0.3360071877358084 0.47910373394938777 0.16319383118408667 0.04421191863052386 0.2750633010625843 -0.42083713699801073 -0.28909303968277306 1.4362591064345651 0.7876705660860563 0.1682923287529166 -1.0339051158424066 -0.6304326953750884 0.5433684574657287 -0.5474583112643862 -0.4108658847179118 -0.34241694791689414 0.952665455034624 1.0804572525703326 0.15321383715323936 0.4351754079975538 -0.3665423802101881 -0.07219631965859179 -1.3094057615527255 1.1096927523966824 -1.1025692539780236 0.5685737530867627 -0.28645997293530023 0.7464051316783662 -0.10253019475544277 -0.443099805050953 0.26823136574241546 0.6607174624015588 0.834845423999646 1.6832246208196688 -1.105759221670231 -0.5204578714161424 -1.4826106971159112 0.8085636074849818 -0.5155730325200153 -0.6660278188708788 0.3900795441001798 -0.3460802557010943 -1.8813391751403405 -1.2916476662383563 0.7652510607402756 1.423102257337633 0.015911529023933887 -0.13331349868488654 0.7042426393777033 1.070668291504369 -2.704020710083943 0.5875988880390138 0.4800894949014248 0.7196427759828574 -0.317583176702666 0.5706463193450754 2.1861025743705187 -0.4909698892593544 -0.8172364526686312 -0.4936636340414337 -0.43287658466104806 -0.9903452289735847 -0.3254044725192976 0.5127635880956781 0.7484676706343497 0.44377549096173896 0.4131330834855337 0.36191696562303477 -0.5114150444875838 -1.292647054037148 -3.469216492106251 0.07587942493713383 0.734913843209315 0.010866767511174834 0.052280297460955125 0.1985827522063419 3.6829944639957928 -0.22700629765435743 -0.5067906583416949 0.9617969850222469 0.22156661469602484 0.17982475487254837 0.00222014757977037 -0.09274714722674994 0.5742142392019917 -0.7749898852945943 -0.10375866784590516 -0.57073965038983 0.27164990450566123 -0.22206823692279176 0.7913490433789081 -0.23324765057837896 0.6325304584443816 0.6687827559081967 0.08020376334410058 0.6434324500688661 0.344666148962387 2.0488038657856396 -0.3650583394654939 0.1861237005073827 -0.7118554187279547 0.0005494447455667958 -0.6745631100353995 -1.1738577171103657 -1.5042935814059835 -0.18725395745708395 1.79697999486697 1.892980358923695 -0.8604896069303116 -2.184176818102716 -0.5727656796809233 0.6356597481019827 0.5308320155616149 -0.33008696559663153 0.47809277618637014 0.05016530800048135 -1.1416217398947952 0.5435232378760381 0.06614805658198285 1.0873087282745275 -1.1184478728814933 -0.048710063611193524 -0.11257678035816741 -1.2398995871317873 0.4932633132792215 -0.2000444243535329 0.4097001465445847 -0.3763369977031067 0.01495944952330972 0.7707488506300533 0.3260451914270901 -0.045296924164586506 0.9755742413119972 0.6957145473020342 0.2046770380295378 -0.11910532550530453 -0.014313845519510832 -0.29358604245712017 -0.047528127487950406 -0.6093239384209312 -0.3590524995910462 -0.8253485402528045 1.017950392285363 0.40292888925902215 0.8257964264235004 -0.5230832248541314 -0.19117900354310302 -0.05142977653520175 -0.20714503995405617 2.7821848172901955 0.7457746971832189 -1.6730667064500604 -0.45053132162833376 -0.5631021884492302 0.40949394407104966 -1.80043941417048 -0.33831783814685606 0.6877029898514673 -0.42310536420689715 -1.6276332567076097 1.0606553873530573 0.29183872074871026 0.697331771190483 -0.2025671907753866 0.598248140222744 0.6786347090016118 -0.9328859584148514 1.1367878088412615 0.06420918768805715 -1.6781693177839485 -0.48229267320033065 0.20561729045562005 1.663762141219683 -0.3421914621696494 0.15811538821991478 0.1303202203845175 0.29024335123713246 -0.7382729894895349 0.23938795914816194 0.08703287045079204 -0.05473055877366058 0.46766361043324617 0.005132436130558902 0.7347294951126508 -0.5234889449329823 1.6961382435575434 0.6690545215123445 -0.37292282981523517 -0.08038451189633898 0.4487132945829885 0.2869698226921832 -1.6204333965250608 -1.293702748995172 0.3584552323266794 -1.0308604154788117 -0.4193839494912519 0.6080134471396238 0.7445336256872661 0.5498011004649499 0.1983464678258197 0.4389834688897343 -0.47559597790644537 -0.4690304088737858 0.673918277362549 -0.7956510131883716 0.1578845031560313 0.371802857278179 -0.28345409622944084 0.07387679268480825 -1.0516367287942148 0.49774268920681375 -0.25337630300745395 -0.6406862547822966 -0.6716482503814498 0.6732670169317954 0.5013394054191366 -0.17878114409938242 -0.9930027212010899 0.7083078105860123 0.7598095780097301 0.224890022642303 0.7692005323063268 -1.8028935321379271 1.059911567208497 -1.032312574544306 1.7505119332124175 0.08284094385663153 0.31975344488110735 0.48557082973097015 -1.0053686989656105 0.3559527776197999 0.2918374351971296 2.3339181233263226 1.0411592263016585 -1.5361166394538512 -2.121462726902946 -1.4283421655803334 1.1107003677255904 -0.12431952271639235 -1.4329374982604999 0.6219246579040772 -0.3963219254654658 0.5068572499135723 0.1323537058747785 0.472431978356167 0.07616764560151398 -0.9221305196705603 -0.10217024031286275 0.38619229323063164 0.10008456142842763 -0.5392935160654067 0.020295259913926337 -0.14243731536302567 -0.044213204182104504 -0.13837882902293588 0.14179659645523324 0.4021619291860106 1.4361279801733395 0.6844346035128406 0.2964949885737991 -0.9034676531537343 0.20632742914876726 0.13160654329610882 -0.42288502066597494 -0.48012497612505045 -0.2906141043129898 0.20639890581665102 0.5837185791480012 1.2127453953144984 -0.518335682866817 -0.7568288981148514 -0.08349734649370781 0.43226414788802975 0.3028939501216074 -1.0517627128491176 1.9336562393765018 1.9160156434766034 -0.033649569733645274 -2.4426572751059545 -1.6479146326644651 0.550284982079904 0.5214901693353987 0.08762113885409427 0.10127421086115462 -0.6056819707929697 0.41010303840995826 0.3472544785148536 0.14590059132127775 -0.6918154693579439 -0.24616384441941472 0.31859901956169 0.2405639817341341 -0.4632256292665506 -0.21580348696000254 -0.2823914592928814 0.5244484806327743 0.06024094706892851 -0.02785018944304881 -0.28437403694054897 -0.07314839915921596 0.16043709437455594 -0.15826631197548227 -2.832419802186348 0.43738629960594355 -0.4136658160605521 2.1274253722442844 0.2118388458852997 0.3273356281037395 0.2900394627564424 -0.8549100559600051 0.13436585120880085 -0.41654262338771486 1.0808007519526805 -0.3973513951712447 -0.4077278533095623 -0.10877231901041268 0.017294011193757314 1.1453696369730015 -0.9451172103737207 0.24491917337903626 0.7744962334876274 0.6887430010802074 -0.8662578768726564 -0.9121189010708292 -0.5863853273468869 0.779831786767928 -0.14559668692761377 -0.05768449919566194 -0.2702129149488185 -0.7331796341270277 1.139451985936986 0.021951050349794454 0.19880438129884473 -0.31283409205345475 -0.15354396679914847 0.5712893522457129 -0.3478257776372913 0.056969475406508346 0.03765097758355451 -1.0613416147868044 3.182957322327847 1.194383862088175 0.114105558297868 -1.3017569867582162 -1.226968738002732 0.38361784763523615 -1.4553940274918031 -0.038662192456888254 1.2268712931929193 -0.094264869422857 0.6846341211181564 -0.1013801403113996 0.29002197925494566 -0.8951696748110004 -1.1362617611344623 -0.23358883596788158 -0.05144186072005979 0.4013414901672443 0.49582438913817833 -0.7956466423129975 -0.7627781737197509 0.5852422148813792 0.37466552353795474 0.45868968906941004 -0.5497126545162017 -0.18252081364747275 0.34615096103802967 -0.6553687964951358 0.06051117001117966 -0.17318976605453396 0.5389518164552718 0.438734843214038 -0.4237977622882314 -0.100155266765363 -0.2966777940085664 -1.5572012280382923 1.4158810569988456 -0.14447311484613184 1.7692907564818172 -1.061661202909752 0.045847654461733944 -0.2982286834354541 -0.30904582865561614 -1.218712668641527 -0.08773812404793277 -0.3798018163232556 1.1736237467226884 -0.15663777523312378 0.9699828632671488 -0.2819446015634499 0.554238053190381 -0.7909656918975604 -0.12182375287773212 0.7493364463925483 -0.8292478753072107 0.38214640529603217 -0.9046493321666614 0.34686135684149294 -0.28467639867231614 -0.14558845939749765 0.5994167066095483 -1.3837363539455008 0.8858777079861131 0.2908591304442604 1.93717093739798 -0.07657722233510683 -1.184081965941535 -0.5772429987259865 -0.48821418089108826 0.49326922681649243 0.3292683263500781 0.254518129921381 -0.34153788774605054 -0.4600809129899818 0.373214392913725 -0.012238193937404728 -0.08848888617102824 -0.7451337211651103 0.01791236150404657 1.0000462583114325 -0.9811568776060974 0.13586763256530793 -0.2754993601587384 0.2246866483822453 0.028925939005730827 -0.7102325384125511 0.6901067141969535 0.028749561328866618 -0.544862782623068 0.03536912352791328 -1.0245198179727646 0.4187553147683175 0.7026459843145447 0.9934783752859278 0.02854567284817664 -0.1011274008706452 -0.1994445859860049 0.24814462229486942 -0.41825600653439576 0.060289798028992946 -0.4581901237251722 -0.07369475858098921 -0.019432397692998794 -0.27426034554531475 0.2040957116047711 -0.6271763932213198 1.1069303591601967 0.801436252411581 1.0805809226323906 -0.8112290701322868 0.07706547482543502 0.43991189424127464 -0.20419727017964187 -0.5240592156141555 -1.3606041388034116 -0.9260758774715535 1.4429930827242892 1.2067025315545281 0.801934017983606 -1.7163412008679795 -0.44019111604459027 0.15976912177325386 0.6362708993234204 -0.6907312351548298 -0.9450156517988498 0.47003339621700346 -0.12623396613028584 0.16657868849591956 -0.02190965558889775 0.16111355161629026 0.9399629198662908 -0.31135930728014116 -0.20256384834127694 -0.022201990018335956 -0.577077933903032 -0.6484563856460187 -0.5178230048964566 -0.07660087648419066 -0.47848384097720176 0.6597607549152443 0.49928303711074007 0.9873951452063253 0.6158082605936943 1.8560009534858681 0.32863480653113725 -0.5593769170788431 -0.7186426168531171 0.23614399828956747 -0.10909396401588953 -0.8936784349774545 -0.13146307573970908