12.543300098841748 0.0 0.0 0.0 12.543300098841748 0.0 0.0 0.0 12.543300098841748
12.615318471012625 0.0 0.0 0.0 12.615318471012625 0.0 0.0 0.0 12.615318471012625
12.679900845051714 0.0 0.0 0.0 12.679900845051714 0.0 0.0 0.0 12.679900845051714
12.721290969580295 0.0 0.0 0.0 12.721290969580295 0.0 0.0 0.0 12.721290969580295
12.66695928724422 0.0 0.0 0.0 12.66695928724422 0.0 0.0 0.0 12.66695928724422
12.516283485646467 0.0 0.0 0.0 12.516283485646467 0.0 0.0 0.0 12.516283485646467
12.500004936363094 0.0 0.0 0.0 12.500004936363094 0.0 0.0 0.0 12.500004936363094
12.574727404068657 0.0 0.0 0.0 12.574727404068657 0.0 0.0 0.0 12.574727404068657
12.511642072351998 0.0 0.0 0.0 12.511642072351998 0.0 0.0 0.0 12.511642072351998
12.702658110896959 0.0 0.0 0.0 12.702658110896959 0.0 0.0 0.0 12.702658110896959
12.563109847636463 0.0 0.0 0.0 12.563109847636463 0.0 0.0 0.0 12.563109847636463
12.642030807313102 0.0 0.0 0.0 12.642030807313102 0.0 0.0 0.0 12.642030807313102
12.707541887352853 0.0 0.0 0.0 12.707541887352853 0.0 0.0 0.0 12.707541887352853
12.49228582842484 0.0 0.0 0.0 12.49228582842484 0.0 0.0 0.0 12.49228582842484
12.493845842835066 0.0 0.0 0.0 12.493845842835066 0.0 0.0 0.0 12.493845842835066
12.529635155790436 0.0 0.0 0.0 12.529635155790436 0.0 0.0 0.0 12.529635155790436
12.446725787494435 0.0 0.0 0.0 12.446725787494435 0.0 0.0 0.0 12.446725787494435
12.546900091390176 0.0 0.0 0.0 12.546900091390176 0.0 0.0 0.0 12.546900091390176
12.807717249603012 0.0 0.0 0.0 12.807717249603012 0.0 0.0 0.0 12.807717249603012
12.435123048024074 0.0 0.0 0.0 12.435123048024074 0.0 0.0 0.0 12.435123048024074
12.432475574450683 0.0 0.0 0.0 12.432475574450683 0.0 0.0 0.0 12.432475574450683
12.49064061648407 0.0 0.0 0.0 12.49064061648407 0.0 0.0 0.0 12.49064061648407
12.605784814426926 0.0 0.0 0.0 12.605784814426926 0.0 0.0 0.0 12.605784814426926
12.45978905605985 0.0 0.0 0.0 12.45978905605985 0.0 0.0 0.0 12.45978905605985
12.571643888475581 0.0 0.0 0.0 12.571643888475581 0.0 0.0 0.0 12.571643888475581
12.503047705311127 0.0 0.0 0.0 12.503047705311127 0.0 0.0 0.0 12.503047705311127
12.717847613485539 0.0 0.0 0.0 12.717847613485539 0.0 0.0 0.0 12.717847613485539
12.503085806070128 0.0 0.0 0.0 12.503085806070128 0.0 0.0 0.0 12.503085806070128
12.62565912284106 0.0 0.0 0.0 12.62565912284106 0.0 0.0 0.0 12.62565912284106
12.719864307826574 0.0 0.0 0.0 12.719864307826574 0.0 0.0 0.0 12.719864307826574
12.56294686105629 0.0 0.0 0.0 12.56294686105629 0.0 0.0 0.0 12.56294686105629
12.569634073438253 0.0 0.0 0.0 12.569634073438253 0.0 0.0 0.0 12.569634073438253
12.634814946899992 0.0 0.0 0.0 12.634814946899992 0.0 0.0 0.0 12.634814946899992
12.316894805310936 0.0 0.0 0.0 12.316894805310936 0.0 0.0 0.0 12.316894805310936
12.578762380282352 0.0 0.0 0.0 12.578762380282352 0.0 0.0 0.0 12.578762380282352
12.71321572538082 0.0 0.0 0.0 12.71321572538082 0.0 0.0 0.0 12.71321572538082
12.681435988133149 0.0 0.0 0.0 12.681435988133149 0.0 0.0 0.0 12.681435988133149
12.635633584041317 0.0 0.0 0.0 12.635633584041317 0.0 0.0 0.0 12.635633584041317
12.567896255486021 0.0 0.0 0.0 12.567896255486021 0.0 0.0 0.0 12.567896255486021
12.498824342011257 0.0 0.0 0.0 12.498824342011257 0.0 0.0 0.0 12.498824342011257
12.537412473221606 0.0 0.0 0.0 12.537412473221606 0.0 0.0 0.0 12.537412473221606
12.689521286699582 0.0 0.0 0.0 12.689521286699582 0.0 0.0 0.0 12.689521286699582
12.655804760869335 0.0 0.0 0.0 12.655804760869335 0.0 0.0 0.0 12.655804760869335
12.467272150963177 0.0 0.0 0.0 12.467272150963177 0.0 0.0 0.0 12.467272150963177
12.593749208000132 0.0 0.0 0.0 12.593749208000132 0.0 0.0 0.0 12.593749208000132
12.536059367099847 0.0 0.0 0.0 12.536059367099847 0.0 0.0 0.0 12.536059367099847
12.467261038241803 0.0 0.0 0.0 12.467261038241803 0.0 0.0 0.0 12.467261038241803
12.323102583142132 0.0 0.0 0.0 12.323102583142132 0.0 0.0 0.0 12.323102583142132
12.684420547588262 0.0 0.0 0.0 12.684420547588262 0.0 0.0 0.0 12.684420547588262
12.374968299687277 0.0 0.0 0.0 12.374968299687277 0.0 0.0 0.0 12.374968299687277
12.350803951645021 0.0 0.0 0.0 12.350803951645021 0.0 0.0 0.0 12.350803951645021
12.727149490453979 0.0 0.0 0.0 12.727149490453979 0.0 0.0 0.0 12.727149490453979
12.673702063233062 0.0 0.0 0.0 12.673702063233062 0.0 0.0 0.0 12.673702063233062
12.665569667895083 0.0 0.0 0.0 12.665569667895083 0.0 0.0 0.0 12.665569667895083
12.31131727753489 0.0 0.0 0.0 12.31131727753489 0.0 0.0 0.0 12.31131727753489
12.408832995135864 0.0 0.0 0.0 12.408832995135864 0.0 0.0 0.0 12.408832995135864
12.577731543080478 0.0 0.0 0.0 12.577731543080478 0.0 0.0 0.0 12.577731543080478
12.653054626917521 0.0 0.0 0.0 12.653054626917521 0.0 0.0 0.0 12.653054626917521
12.64285738211255 0.0 0.0 0.0 12.64285738211255 0.0 0.0 0.0 12.64285738211255
12.646519288394357 0.0 0.0 0.0 12.646519288394357 0.0 0.0 0.0 12.646519288394357
12.538935445227247 0.0 0.0 0.0 12.538935445227247 0.0 0.0 0.0 12.538935445227247
12.572144490114683 0.0 0.0 0.0 12.572144490114683 0.0 0.0 0.0 12.572144490114683
12.693544091837484 0.0 0.0 0.0 12.693544091837484 0.0 0.0 0.0 12.693544091837484
12.493834730113694 0.0 0.0 0.0 12.493834730113694 0.0 0.0 0.0 12.493834730113694
12.62428961222584 0.0 0.0 0.0 12.62428961222584 0.0 0.0 0.0 12.62428961222584
12.54952481034361 0.0 0.0 0.0 12.54952481034361 0.0 0.0 0.0 12.54952481034361
12.662360208126419 0.0 0.0 0.0 12.662360208126419 0.0 0.0 0.0 12.662360208126419
12.805527514314845 0.0 0.0 0.0 12.805527514314845 0.0 0.0 0.0 12.805527514314845
12.664741505564011 0.0 0.0 0.0 12.664741505564011 0.0 0.0 0.0 12.664741505564011
12.698989325311443 0.0 0.0 0.0 12.698989325311443 0.0 0.0 0.0 12.698989325311443
12.492936187213909 0.0 0.0 0.0 12.492936187213909 0.0 0.0 0.0 12.492936187213909
12.617620391868961 0.0 0.0 0.0 12.617620391868961 0.0 0.0 0.0 12.617620391868961
12.666443339466074 0.0 0.0 0.0 12.666443339466074 0.0 0.0 0.0 12.666443339466074
12.620382696896568 0.0 0.0 0.0 12.620382696896568 0.0 0.0 0.0 12.620382696896568
12.55018681103126 0.0 0.0 0.0 12.55018681103126 0.0 0.0 0.0 12.55018681103126
12.722355144946293 0.0 0.0 0.0 12.722355144946293 0.0 0.0 0.0 12.722355144946293
12.663559852857757 0.0 0.0 0.0 12.663559852857757 0.0 0.0 0.0 12.663559852857757
12.724150643214237 0.0 0.0 0.0 12.724150643214237 0.0 0.0 0.0 12.724150643214237
12.573608194272989 0.0 0.0 0.0 12.573608194272989 0.0 0.0 0.0 12.573608194272989
12.582234841123569 0.0 0.0 0.0 12.582234841123569 0.0 0.0 0.0 12.582234841123569
12.565606505705475 0.0 0.0 0.0 12.565606505705475 0.0 0.0 0.0 12.565606505705475
12.606300233027863 0.0 0.0 0.0 12.606300233027863 0.0 0.0 0.0 12.606300233027863
12.628942667418894 0.0 0.0 0.0 12.628942667418894 0.0 0.0 0.0 12.628942667418894
12.496995505579187 0.0 0.0 0.0 12.496995505579187 0.0 0.0 0.0 12.496995505579187
12.47225382520262 0.0 0.0 0.0 12.47225382520262 0.0 0.0 0.0 12.47225382520262
12.444553515054144 0.0 0.0 0.0 12.444553515054144 0.0 0.0 0.0 12.444553515054144
12.376248379354287 0.0 0.0 0.0 12.376248379354287 0.0 0.0 0.0 12.376248379354287
12.50548615388722 0.0 0.0 0.0 12.50548615388722 0.0 0.0 0.0 12.50548615388722
12.559905679639881 0.0 0.0 0.0 12.559905679639881 0.0 0.0 0.0 12.559905679639881
12.529459998134469 0.0 0.0 0.0 12.529459998134469 0.0 0.0 0.0 12.529459998134469
12.577108172329039 0.0 0.0 0.0 12.577108172329039 0.0 0.0 0.0 12.577108172329039
12.559711471604416 0.0 0.0 0.0 12.559711471604416 0.0 0.0 0.0 12.559711471604416
12.299102809211671 0.0 0.0 0.0 12.299102809211671 0.0 0.0 0.0 12.299102809211671
12.532049262214944 0.0 0.0 0.0 12.532049262214944 0.0 0.0 0.0 12.532049262214944
12.553828608579149 0.0 0.0 0.0 12.553828608579149 0.0 0.0 0.0 12.553828608579149
12.571327440504986 0.0 0.0 0.0 12.571327440504986 0.0 0.0 0.0 12.571327440504986
12.677660837928753 0.0 0.0 0.0 12.677660837928753 0.0 0.0 0.0 12.677660837928753
12.618410453441033 0.0 0.0 0.0 12.618410453441033 0.0 0.0 0.0 12.618410453441033
12.617213454595737 0.0 0.0 0.0 12.617213454595737 0.0 0.0 0.0 12.617213454595737
12.608568286542864 0.0 0.0 0.0 12.608568286542864 0.0 0.0 0.0 12.608568286542864
12.264956062311036 0.0 0.0 0.0 12.264956062311036 0.0 0.0 0.0 12.264956062311036
