12.012367292257974 10.769715094765822 1.4084369948985445 11.935815531754743 11.211088738643864 0.969154319146978 4.926719782922765 8.167946158363769 1.6544738263373253 12.31553885564698 3.932061171684812 4.418565609318488 0.6083814130440718 3.4979250119638006 4.222977930877249 12.104284595382286 4.449045828558673 3.6425367188033473 4.514647288075616 9.223226538979425 6.452373917244985 5.27592525767452 9.699621076733433 6.846007760946837 4.426304825479473 6.9216438605428525 5.853506597325886 5.243714063020694 12.18871354834759 9.658591942110123 6.103005379591947 11.870402221739283 10.010331163481844 0.7090451593273066 11.65049308440639 11.233428356119902 4.7367013297254115 10.234918951751604 3.9898732418403737 4.503207798385473 9.424671938566823 3.5068056684337803 3.8767075883486237 10.765989734636465 3.933089722292917 4.245455524654373 3.167697550261594 6.041079107003965 4.458503476833201 4.142537747343377 6.008466526746976 4.582782494212524 2.7657725851944077 6.877478900894831 8.285276187488334 2.6878536049804027 1.3551405127785658 9.12763404892615 2.3401533262405096 1.7697969274460763 7.011403716050165 1.9213450792402824 1.2199751652434572 4.370712919441407 4.61802916749027 3.435597353772656 3.881248262984404 4.806316645273983 2.6280471501091256 4.27775452240889 5.378240956580771 4.038177490521013 2.2554107907727348 2.6767653276930266 4.162820263603204 2.960795815131199 3.2445879798674935 4.380935709021963 9.536909387851258 8.824550288637838 0.9630469863288519 10.01003012427947 6.664844877619267 5.226241245983007 9.420996751637862 6.699050456988808 4.4652768588865746 9.941217579937225 5.67997004045841 5.439477347663317 4.013442102726097 6.003072907704475 5.851436952809577 3.0903053886517404 6.0799507940102755 6.0450302465351 4.542618847296033 9.61377473085696 5.5592031471067616 1.5764168698222334 6.463399478031868 6.843273321525289 0.9377571846695671 5.846331829669348 7.278287512253221 3.369719941653539 1.8325636011406805 2.5077945320615296 4.8916988890468 8.757205310407157 0.637706394345154 5.28999884038542 8.030772628482836 0.1468005127067944 3.9312584004784865 8.802963269167732 0.5369134520709012 12.431451491860376 7.5142771603128296 5.259631510846124 0.1664081994213038 7.801581449076799 4.333233538746068 11.706762328649795 7.165548330964831 5.277618603187864 11.106164033317054 2.549300312088597 10.445897259414123 10.391910895788707 2.718321280920489 9.778016702351195 12.00441483999531 2.6554542608250946 9.996796942675193 5.647683586003991 2.47952193363874 8.427391777608213 5.297587536945219 1.6088413005777389 8.496542991053127 5.173333606166093 3.129064185957161 8.99779834960304 9.61140404713828 8.769673350705405 12.494142905754387 9.25098486209816 9.575166453152725 12.134940420823856 2.213603971543295 1.9929046063041744 4.826436098632525 1.9130288712747505 1.19698455049229 0.3216202491743815 2.248913361321535 2.085699940435406 0.0026880292111817867 2.0581172235180527 1.135733107449626 1.2915961544778336 3.0230733001219483 8.031675746089952 8.258132486074441 3.4361994321774003 8.517490302218192 7.499275373394615 2.4657368468301133 4.1069900348632595 0.8669301863314474 12.442251273245478 11.6947709337553 11.736602839584938 11.740516349215778 11.7337680537626 11.019264050232277 5.164929595099869 11.979717082100688 8.707709448217129 10.783776134176623 12.506811638854217 9.602711540169784 11.411806626825529 12.256660604983017 8.876993826351095 10.899500620888537 0.8639160313176957 9.849049410810936 11.693541690345615 2.7650074438883783 6.660329289583683 11.859288857851709 3.394116660345786 5.961015222473058 10.947064814863344 2.1247597769431987 6.389983542553347 11.825773159987603 5.515953848365955 2.093062857593426 11.308198968009098 5.2422339536090306 1.29607411261312 12.463148411210149 6.2506023918550175 1.8814950148262621 2.6672575062181045 3.5904694800930548 11.624904752204753 1.8866126812665893 3.7046135109925147 11.045379201038067 3.402922057015173 4.132264784562426 11.267044400384798 4.9409564285349505 7.967203183581906 2.6198062019441863 4.168991567251834 7.420240039471813 2.700384361779146 11.175327790062067 10.800559069708873 1.8522064090954666 6.681025734746772 7.325763903127336 11.93812349897293 8.077258098649144 7.730435850916169 12.01902778461046 7.020196569419452 6.575850163417985 12.476519569115514 2.241939286466579 4.373936547566809 1.363042791840836 1.3109379232302476 4.2869111314810455 1.4939446716723486 2.577597997111584 7.503075993324563 7.885445953537656 3.472487199363349 0.8770024563108172 2.3190554954742577 3.219300686868229 0.4113838676717227 3.1386347239325776 0.9632677484105915 6.98881323257215 6.306357360794369 10.571568583104419 2.0282516259827106 2.746644052543674 11.246812057325366 1.710216251976578 2.1075378259074893 10.926004613997389 2.7271643074901726 3.310164352784238 1.6081765056725004 9.729737540270753 9.852059802834658 2.111764918040799 9.029194229750441 9.428999377100924 2.2130269797387485 10.304785133302152 10.385476182838001 3.0860030367178375 11.607682801169043 11.355349233080643 3.9932599328670606 11.336220700429909 11.225526077057632 2.982696417103777 12.405261081253993 11.842681528520842 0.06244932820210341 11.329585294677623 8.118400122973345 0.632778131736319 10.79886572419553 8.771441956019343 12.304287515458318 10.767319324446941 7.353396793245085 2.6101604041681767 6.8261391735902714 2.6511644521912907 1.8924327725124521 7.295547093189226 2.681481608530191 5.913024556294889 1.595219276670397 4.998304396586855 8.315819123229016 5.299180536057772 1.1495633501386089 9.30849589305135 5.336308704350343 1.0530715054682491 8.059684935210667 4.375203420876792 1.4167532028640766 6.522164838994941 11.077477505991002 0.6042107657612069 6.983908802233503 11.430709380074484 12.338116795824895 7.760690290754575 6.076263063781216 8.412164211288218 4.712091374931484 4.354368999412616 10.34238994699848 5.480330876085245 4.286697895379365 10.904793893530249 9.621739726419726 9.620447766509544 2.9461954138161475 12.409513259987502 4.909159162784387 8.09711414270561 11.687056804194514 5.367002159692209 8.540557431099963 11.924551648265984 4.125378512808161 7.6954525869405 0.2883541629822433 8.238000489415802 2.8043432329983458 0.2929964383488246 9.02496713761713 2.295787673790906 11.939779214585977 7.844655141616222 2.585425016373261 8.364336608011335 11.163236048766784 10.581816459285172 9.084284403784554 11.80762300474458 10.44116843527686 8.537948424679403 10.284239207740251 10.091937873924907 8.910672587116487 4.222902671076656 5.773793925197746 8.556763374827666 3.6895866374741026 5.03604718658427 9.138785042714021 3.6650895723810644 6.465782705050647 3.400225247493922 12.405035301852214 4.920209810171466 4.059827226491614 0.2165086486760975 5.513921833749943 0.47513519042408586 1.6377034341051742 6.675594485803973 8.785916924333407 8.905517290775862 6.37889526526597 9.155756127747754 7.930727266894475 6.258291434815607 9.49443777371658 9.501236242370153 6.105012307607761 8.650562172966804 5.757199139166978 8.240847818538239 8.573383247458631 5.456109763594381 7.288121459530712 5.983530446150479 10.296845224339586 0.35146703175957544 6.5651256418334745 3.162466994120377 3.8920480443695067 5.706900505770623 3.6185288424141637 3.685698214443461 8.222409167392941 2.627194205702404 8.799250452338473 8.223237025199463 10.351910311773501 3.73770273665326 8.414472178506406 9.883154643779687 4.5644943626684125 6.513873717629607 10.353076838682693 3.5256707917824386 8.009323585313817 4.40457982970828 10.97148662015579 8.74437351440604 4.873699253404961 10.676242422429253 8.156719904775306 4.512690533260197 11.926081930878041 9.158917039372664 0.9759063775901845 6.244669410908265 9.752453456749755 0.28978786218354086 5.7775945451276955 8.436310063978489 1.11597991845397 5.63112642987352 8.758672876518721 8.877407755254357 9.146235762972733 8.009373758514213 8.23313368897745 9.38310344203926 8.838523524947947 8.865416360359864 8.147274799800877 1.0680456971262462 0.8316496461434352 6.397083050409291 0.86397874781819 0.1540517944939348 7.059193689426752 2.6500731850826913 12.256096156478568 5.478938569774273 6.248783613340685 0.44349220726473776 1.8556934465229447 5.34533988042151 0.6394185548086458 1.9255972579737899 6.313908427453871 12.176345854450132 1.304001478275588 2.1624649370403173 8.77331090773407 0.6600673354313592 2.273623662516253 9.71817261757962 0.31741448065123984 11.24059058047634 1.407358271090044 0.1884430147049391 10.001224727610085 8.898656105621797 2.3966483498856928 9.44721224884444 8.119177807579472 2.432509644868281 4.900704978517767 5.084226002263922 9.72954939076927 5.62224577340354 7.293076063069754 9.39317571201863 5.701970988831778 7.373792199205802 10.3800825637955 4.789044521037878 7.51199427969484 9.160309345683634 11.301187263253846 10.057393625452697 5.877188347912499 11.633521999372656 9.174633794396511 5.629997532864624 11.276213552757051 10.684194874691919 5.054159711926997 12.216873257069489 8.227213251330795 11.553094359138884 0.1268729718397645 8.85474201197575 10.953361551512963 11.530365899359783 8.798322248131159 11.91202089146724 10.725612851618294 4.830700820666132 0.15272220468345757 10.70041336171972 3.9413055838576585 12.32192339539729 10.816024958730745 5.518073666082659 11.979880145001975 6.136044432052295 0.6602931148331384 4.97647905441487 6.064723227690282 0.4070777527477903 4.06128224930308 2.274990882227027 6.176785070773334 1.9778150162852681 10.373760740545684 12.021135059027063 4.326309637091507 10.280576564111389 0.2582289191348551 3.6756761176644868 9.518771775908334 11.528710183746735 4.164802105018821 11.79755073476521 1.5661439070412817 0.9748539947118916 0.15080558842835456 1.4613195481152612 0.6926059102177645 1.5069520738748474 8.432521987348638 0.012261075846617809 9.168525207248376 2.56356204430098 8.585236666052035 9.269135017341185 2.2316161504852317 7.7063401714262945 6.776505335099155 2.7500809167707567 3.075479207934909 6.025675934482587 11.438862525138733 7.421268590079917 6.078734093900688 11.97429837645799 6.634490091380069 6.932029713024694 11.480506281466887 7.728102797097785 8.097515528308774 7.2438561534819 2.956593809598087 8.11974225608392 6.493214902366814 2.3318245749748785 6.501568740232642 7.3314460180721115 2.828739951690593 1.0315045552783006 2.751987498385781 9.494312340715592 1.8302807205226912 2.1517529587559063 9.403084919096717 0.9792767623267432 3.5069561880349664 8.840806405565937 11.019376939933167 6.408008264795382 10.283323546833035 11.224685675951008 7.1897694434556945 10.880873820241757 10.406987942507515 6.8659390648038965 9.688143957142993
11.956281618768454 7.708628197667677 2.4237306765617714 0.3823324569009796 11.497803099576442 12.5151023810789 2.9092312079186926 6.999748222144537 5.190421401076493 11.787602195492545 10.826163544179732 5.128391880154523 12.370757907133573 10.11843156263745 4.772942666915271 11.244903810188053 10.193278247125969 5.688940941095498 6.1791217556051645 7.3820176024531605 8.642186995159554 6.860828335141745 7.737794813972659 9.252188104506898 3.6249360707346514 5.632613544122427 9.278983040939329 5.278451093367218 10.636479615649584 11.62395628428657 5.770852203927784 11.198504668851667 12.256639736244793 0.4158538811421543 0.7698460250980041 7.543745985251543 3.8656489624800434 12.345060503408122 10.08652742222426 3.2959159496921715 0.22389541069168498 10.679851080552927 4.32281548855107 11.726922513646974 10.705359254501314 9.000209733366892 4.016629093941122 8.688914134776185 9.48706010380021 4.466819348897679 9.404644228229085 8.290762068512555 3.5290848809918978 9.193186260017972 7.148583749465543 2.4878291097129868 10.023412983913785 6.783647816736089 1.9183484032945348 9.364678899312919 7.65795246336962 1.934521241574373 10.64864078265564 2.5705855988828294 4.179871314956026 2.41511441404607 2.0310031972406777 3.4193189949756166 2.7486255884642303 3.0456406465457517 3.744932980030924 1.6941489634276983 4.210867152439303 9.278554120111314 7.645185761076955 3.658442356593661 8.567239388123268 7.153680338127832 11.61887231094275 11.377478191999923 8.369431194497789 8.024124697309233 6.159959086847697 4.2184111128849695 8.985462426074278 6.048603670704067 4.004089467380936 7.981232614507788 6.000526692011039 5.185148197955609 4.23971838578251 6.034638513156657 9.967363123947075 4.984135713438493 6.548018898334516 9.478418610647568 5.643651947784563 8.170424545617566 8.303478309531336 2.2202834355797507 5.161444014548576 8.39734889427414 1.7215872811021509 4.600655262556653 9.049926703461153 1.903361404950972 10.221006717125254 2.8843033386199717 1.0505646147786714 3.2380873298210493 9.962909916526806 0.3158194517944127 3.7643227245208704 10.354148788268322 0.7614820689517228 2.636879097448001 9.223904560494887 10.174443576648747 11.190519172259517 2.848576756710064 3.697940918726401 0.2394324369205841 4.6073918426201725 10.318296053173704 10.569706734982514 2.0714731388956857 8.394775369306053 0.6584716859766692 11.740496596321783 8.48940287315712 12.538882256396759 11.133207780445707 7.887298953172629 0.28264116421564944 12.48120502034729 5.053936270538607 1.3036417801575026 8.24884136523338 4.598170044817863 1.0169283911394102 9.058593427250738 4.396804331383559 1.9491171650453345 7.851206527027062 11.259297888563477 11.901341906827195 9.081464999638683 11.612880034669018 0.17553080273751676 9.092326788842225 4.668500445293758 9.811904554428788 6.9145317458728455 0.9648208181948926 12.146659389814506 0.41873648141278075 0.05561589301130626 0.828984115026417 1.1031250776562982 1.5571844507879145 11.7677330689007 1.0745854426793264 6.916588042783621 12.340607295987853 7.37640378573356 7.441524059680926 0.2543336510985442 6.692994138203393 6.513276311265346 6.443841598400893 1.204702360453045 0.3061170103583568 1.6953600340009158 7.971039437183212 12.146798158317687 2.005646407113942 7.4839746063358845 5.9113363904209795 10.148140637636686 11.047701151849182 2.706982422191418 1.438020152510729 5.401753216102896 2.9034660073774394 2.290639066692588 5.898683225994555 2.190208516344857 0.7720789364673734 5.90274535854222 11.86788608224207 4.3375123345698 5.103110781938614 12.570597167032885 3.7463206650627354 4.759822735705418 11.41480691935565 3.7456898991391845 5.741307128068672 12.009165033798938 1.2033790135454356 1.7233408103696217 11.491608978207175 0.42124819132035934 2.0393040767946036 6.089086227677548 11.28387252894501 6.27212188337347 2.0719525209975846 1.2781714521645282 11.37407205601275 1.4208002427977968 0.7756200563621866 11.901468060011904 1.7233029644142086 2.0327819571450902 10.832963200835605 2.3218745952268156 7.579951949263348 5.783189985392434 1.4846337542611208 7.082643479817561 6.041375093220178 10.763086951824668 11.074155474682897 3.5828765989522955 0.8952902289100595 5.641898418517092 0.5734053319947839 1.5456162037499959 6.249981999456843 0.12997814927053727 1.5523275531765743 5.142079500695572 1.0977585211787295 5.5827956514803985 10.613469274758456 5.72508382851495 5.0669805098376335 11.147374783088654 5.030408701590168 6.157864943981508 0.3456281878095684 7.584115004358783 2.4869964986939 10.759163587780183 2.2999870176796087 3.068499603615227 10.01462010693949 1.9513374610962329 1.4885823489425478 5.635388914186049 7.905515473044772 1.0162345486235047 2.46731660187912 3.749070804489416 1.7274029429172877 1.9657063088347164 4.194568160974756 0.4517797850839041 1.8521432119586605 3.305453130456257 1.0619146168070415 8.801909542321045 10.20526279967343 11.439318483144827 6.850673003772579 2.731418294069769 1.5815824767108528 9.602465037173035 9.98287996566642 3.7668836341704854 2.704875664006759 0.4127366359479671 4.465545201732107 3.0427517386158898 12.420853336781965 3.2005693726882583 2.1638551160589117 12.441403690571246 10.38041388132497 9.174326358903809 1.0153842761585583 10.769558610200297 9.144163132439617 0.1601565141168937 11.034379375543795 8.667594246560174 1.470731673306065 0.9542781965486674 9.11603097224926 4.103611714798755 7.259232707774794 11.142202502515538 3.6666801595552325 6.2554570476732625 4.267207164730847 5.934472884496817 8.534288176276982 7.809020902059996 12.2309171018824 10.741981524022663 5.901975824115488 11.032045541626657 7.989041496641346 7.032548050169169 0.019985187521778202 5.579288592945456 4.363790042944919 11.757981427722607 5.122159912829844 4.96028014620981 11.170990659266389 9.578407624848815 9.825705712836074 7.546168126397977 7.127289091886474 5.848221952110504 0.7337800911212261 9.432675465871677 6.790043783200893 11.081030823249598 4.924313873248952 6.537094032538619 2.7903318313293983 0.2657378989963396 6.3711773640078615 6.8011074174999715 12.40372173429833 5.643311334185846 6.288572258659671 12.24314134548081 6.743468027405914 7.370739507740076 4.1292208112949105 12.23393216299697 3.9813945094515844 12.53277644225679 7.215747705005215 1.7986794922785092 3.4015061652945473 11.67492217090946 3.640326759269287 7.060831594181178 9.160878429413708 10.236687557984723 7.452322772292114 8.982649210055243 11.120781691751759 7.768942035277589 9.807577500193227 9.93341530194158 7.459349504680468 5.2227796929546395 7.0320308221118575 6.883498062434154 5.795552997494026 7.572307066269914 8.150593264981133 4.781571544749444 7.598105392543136 5.279170166520066 1.481870999515969 2.0501280200427323 4.703671953190941 1.8697541965441944 1.3311053284688972 2.970541655687814 10.033316008913529 8.272772624372891 6.595818340021183 8.605110574173247 4.103044025467559 6.420402336681752 9.334124597976125 4.742918208954261 7.046122132843978 7.797969883079388 4.435735204185105 10.52132698864618 9.684338454049907 7.456914748215562 10.792594181728367 8.90785298684061 8.021816094029036 6.088657306849534 3.7639694956036815 11.166486990572237 10.599138272975388 5.535450361258688 3.276728050297761 11.03258800032091 4.974232688438749 3.926227721777846 11.554647724606825 11.097392891306502 10.816853439148124 3.9387042717456775 9.07604041269615 0.7277146460003633 4.551152752876399 8.535940782996686 1.3687746694233407 4.497020421317283 9.609277309147382 0.14602988049305374 10.161500259897489 6.378797016364352 10.474890001354384 12.52717524085566 4.909011491943613 12.107488825962012 9.090320953205335 8.108016565141465 0.332031397561511 10.258348059799452 2.6177795052828876 6.481094633845793 9.989755314233122 2.908524750084316 7.388640644650442 9.558235730613665 2.301336856756007 5.935280264878962 7.965324697915842 0.9821504811785227 5.191354934643347 7.582147014677305 1.8221818305900053 4.852179482231702 7.91247912884077 0.4074192792124353 4.364471270142354 2.1622277399761507 10.567196286606782 8.572638744428861 2.69854277413431 11.250454550315297 9.106935327631659 4.66267216816015 0.8742541853596459 2.566813618659997 6.928812286382032 2.9602601711339385 3.4888798610247806 6.41975895543973 2.4825432912736325 2.811714796137765 7.681845876553718 3.398743410549395 3.0631633239019886 11.953026866602933 4.521317524692454 11.398192544929326 1.531890737253534 8.52716052134086 4.667932755962562 5.809921845232509 0.17123654832998406 1.2183988117170232 5.315388745850344 7.30365124411123 2.2433568530632333 5.842242291155244 7.815757482123517 2.8986974169953967 6.605115829734319 5.326969608206733 0.14065197022886106 2.6345957248047474 7.169941483636967 11.601942553554652 3.1412773758744987 7.851812062313671 12.11605462720383 3.2672034848521467 6.592891586135908 11.07631269414144 1.240320450624102 12.196855742010666 6.733905616004887 1.7440173173436113 11.582451886516937 7.374183489682662 0.6201185947610965 11.627904878967996 6.349138402639001 7.767516504290364 11.844547743070695 3.2691840898520956 1.8263448856854398 8.269934177716912 10.553294205651728 8.721688732163875 11.560084926867832 3.188319898452905 10.284373461805151 2.544774657291138 0.25666496195198735 9.615534507109004 1.9932077031015236 12.48944282330886 10.888281372330995 2.005469792655348 0.7449244634585187 5.430503526898334 4.0990828154676615 5.447685590655853 5.785208436347795 3.7431920660819236 4.557245951697897 0.4055017508048414 8.550233938824343 3.5759381737932383 3.707566406719784 5.781537378672731 4.248877106992465 3.3712672469195293 5.084503187193871 3.66714692633866 4.419511904631382 5.460162140623684 4.859080061435345 6.506842498845131 12.18372319548234 0.8423273373732072 7.0419338471116015 11.936702644501443 1.6231247204358974 11.611176966675432 3.696351388599054 11.838063469376594 12.069504102045792 10.705144794087305 11.508727965372339 12.5545757125747 10.009069366812241 10.988547923538606 10.110017145217286 4.922951418854083 2.6903175864912106 8.542374595416902 11.388958131808545 9.649961711216397 7.856441884192533 11.745971644538203 8.99383899753903 9.412390033770288 11.333362423306793 9.220977806609612 8.80959227126989 4.068478052856984 2.005267947559812 8.182371252209615 4.6207640801994465 1.5273113766485564 9.18566753020925 3.4163922410903425 1.411010755664291 3.5401106693355624 3.379669049021224 6.980459400202358 4.108708303461044 3.722666942929586 6.244418644011126 3.078617089028979 4.076425703493722 7.450127706878158 11.591244763491233 7.684583400661928 8.705036511782138 12.40435250022188 8.017930575939966 9.062567252569107 11.22546360442422 7.21892676525991 9.526445128066712