-29878.858750436513
-29916.722592975555
-29916.339338593323
-29914.655855037017
-29913.71972002952
-29915.2888108737
-29915.06981801017
-29912.357361551698
-29915.40764829326
-29917.512585708522
-29914.323918875732
-29913.7265143039
-29916.31591380958
-29916.57223470527
-29915.566127120786
-29916.25218420434
-29914.469578284257
-29913.838082882547
-29912.418285799315
-29911.997511136502
-29914.27467171321
-29911.123111547975
-29915.40571492444
-29916.993663529756
-29917.829937248345
-29915.444424342502
-29916.728572949272
-29916.036888823648
-29915.967740343425
-29917.38005470426
-29916.761738864214
-29917.128490222414
-29917.67506678638
-29915.199406239328
-29913.333412530017
-29916.487636689737
-29915.39639393701
-29915.06543343989
-29911.917855932796
-29915.979053884435
-29914.746694255555
-29914.80247337471
-29917.39976907976
-29916.035856015576
-29912.48386496232
-29914.090773779626
-29913.180016925064
-29914.42616048045
-29911.56112584698
-29912.285819966317
-29914.325608974785
-29915.03227990613
-29916.05625679823
-29915.443516570733
-29914.223826290065
-29914.01355181787
-29915.12918875989
-29919.144236068438
-29917.84047199955
-29917.928785865603
-29917.446307893242
-29917.460843126046
-29917.90424663963
-29917.401249242983
-29916.28386737097
-29915.685962926018
-29917.598820760908
-29915.469084659133
-29915.55150998171
-29918.739945653797
-29914.897769545805
-29916.652892784525
-29917.426224123214
-29917.67209367058
-29915.39524480027
-29916.471527822603
-29914.915405243686
-29917.877987109972
-29916.39913288823
-29919.083036441618
-29917.620398844083
-29915.027248929426
-29917.45735040887
-29916.76124524971
-29914.62921590856
-29913.844368031936
-29914.858850464032
-29914.901323896767
-29914.02035670469
-29916.845255635402
-29912.016520737154
-29916.142049801678
-29913.162137957406
-29913.023904399484
-29914.07897097793
-29916.524680226878
-29918.43748227843
-29918.082348412398
-29915.93853259638
-29915.418939929114
-29914.777439581838
