6.592417520311073 -43.6274276919862 44.23944460385826 -6.104673079967551 43.66437033064882 -44.445008415368136 0.556937454399415 0.504157591594222 0.4589462851649063 -0.7178442893215379 -0.4744078711356153 0.15943950634797704 0.7982306009900898 -0.3072450280014515 0.0038923930758707156 -0.13714572794678317 0.7984913108506442 -0.5109406759543266 1.0441879858256533 0.271499494970726 -0.09436488533583104 -0.4736542807990423 -0.3413594531866573 0.2310041059598409 -0.9834947817106546 -1.6333215653416389 0.26754642386024885 -0.1949407845783804 0.2940794371537709 1.2603128606808165 -0.5248554862632058 0.29484614011646637 -0.9858969633942438 0.3528620545096181 0.15613126791035045 -0.012463679684649502 -1.1540059724917608 0.9103530674196579 -0.6557953425095931 0.7235379972722055 -0.8572165926059947 -0.4819270623307958 1.9554519950953548 0.07761903333605988 0.40217272781928803 0.36824213651011417 0.4293140641207703 0.039744883998105746 -0.14172717666987852 -1.2954752675145624 0.5409788741876296 0.11031626645876486 1.1006869493536464 -0.6306419831724172 -3.5961292294711167 -0.8403648111559785 -0.5557064102057914 -1.2084719647501252 -0.5323772485615477 0.24266585856848533 4.171424874662745 0.39509345237500343 1.2472123187431166 0.06182603216786127 -0.2642286723409256 -0.16399370137756272 -0.17683301923407613 0.052793746762263914 0.27462184264979156 -0.20557461014314274 -0.13482607867467103 0.06035227583581218 -1.7318945752215464 -0.8745872226739584 -1.5041442003123127 1.5339281164429646 1.0151460900673486 0.7355172811212687 0.45425916410188216 0.6539122665542674 -0.6054518570600347 -0.26912405276001394 -1.6757655934384625 0.7501923666349403 -0.5511061924296187 0.4874698465258959 -0.5900062119289258 -0.014468111709187985 1.4033255889313379 -0.10847972747065834 2.8433508472765547 1.286031091382527 -1.2060970367600454 -1.6389489388307452 0.4530589731461939 0.5740142073760437 -0.21177431119595141 -0.14408384982751316 -0.07968182940235954 0.11331288719324356 -0.5932802546945073 0.45396040191454073 0.5587097158084894 0.125270573775752 -0.13511867021442536 -0.06538058228833901 -0.7147245127456336 0.5700899326209731 -0.11849108896007335 2.5869727813282997 -3.6541621131451323 0.7588266452711706 -0.27386131033468314 -1.3003017423689283 -0.7731520607549072 -0.3704445434780717 -0.5492848229501637 13.457164487693335 7.3246815846023665 -0.9449647439562565 -0.6385900343749003 -0.40145179049286345 1.3082389949381341 -12.788467092410093 -6.26205030446986 -0.21453207644674663 0.4963892605027128 0.2587357675471544 -0.32693864977563697 0.5096430401888254 -0.03422755372430234 0.3013083508020424 -1.2974370192266234 -0.19631452499745547 0.6412932922386763 0.7284061239977843 1.5994069148720649 -0.3936837165116704 -0.506990690167643 -0.8959412628697021 0.9651733576936475 0.19539304162445056 -1.1041070307787888 -0.06902692079167466 -1.0318261218261906 -1.447635980812939 -0.5320478902465868 -0.3548022089551245 0.744521541502408 -0.26300636989805026 0.165479799004786 -0.22473395668041296 0.5641622542826285 -0.2696616704310388 0.951716203747477 -0.5170902404954901 -0.22785399036663337 -1.0071651287444008 0.42938219835454433 0.6116638994080176 -0.0379422835717282 -0.809761998668457 10.22291519995973 12.099772428069317 7.514596633831381 0.14490223196375046 0.1593906553879126 0.7675118317499943 26.281134143885414 -32.133654765950276 -60.40806697463988 -1.222899453029365 0.569645903105019 -1.4626530230470616 0.7975520868658263 0.2934024656914043 0.6086063435286163 0.800336591589499 -0.4574234207624768 0.5847542195013672 -0.12133730015961683 -1.9249525409549169 -0.510657854606585 -0.33735470290263836 0.029213388339162594 0.5889602871629147 0.37841162084394825 1.6523060768639415 0.34142733031011524 -1.5911068796468018 -2.138471859866433 1.3011363224550818 -0.10785160696835619 0.2978409610787322 -1.5729338082822006 1.4533276318810775 1.542194213106499 0.2513672429972252 1.9599241719340956 1.6291921165542973 1.67576842165194 0.5708226970219396 -0.04288342962708744 -0.23033587624822266 -1.1371076540745255 -1.3100886465523631 0.054245134496809795 -0.7298726812409817 -0.20080675644085416 0.04575869429235345 0.6830323238486753 -0.1505756281994439 0.12151573471901007 -0.3582171481739444 -0.378483097511832 -0.3581461857266929 2.420380208875309 -1.4477604222059453 4.555888615238045 -1.1297170180374092 -1.1779205743258294 0.6477645017853166 -0.2717848874216287 -0.5853563718617403 0.8733554071493862 4.96833881372394 0.3523586325106383 0.95204607628307 -3.5346132723445063 -0.007289848793193897 -0.09493052803131394 -0.6843896092075181 -0.12769178162273492 -0.28303552063478354 -26.175601157747902 32.83505607922445 61.12237239757023 -0.5495061949323504 -0.2891056380882634 -0.13330038605876396 -10.053223676866441 -11.913969858346778 -7.638725637803522 0.3139208973597303 0.26575796450125844 0.23745114713676527 0.2830182942436029 0.6845415614043502 0.13358783539219574 -0.10444746638281367 0.22144217330301863 -0.5824474257450615 -2.6138078992432727 0.3837682571701713 2.508686546721886 0.2906521566397769 0.3266110912328891 0.14760086184183613 0.14242625961943214 -0.20804826849461588 -0.010596030348291428 -0.35930009682547803 1.0247584163461319 1.4899116016526985 0.7161635591850053 -0.41779732173042244 -0.7198163254462442 -0.38089787760091176 -0.4632942777209569 -0.5666479968189596 -0.930025606147921 -2.3649806490590817 -0.6006986586457654 0.37211216098848177 0.8268315525562341 -0.19412214533182698 0.0768019367514032 1.2809629328310004 0.9588327601876001 0.7991937362343075 -1.0831386560572378 0.09311224387565255 -0.8420540259329433 0.3089188161594486 -1.2758333249139189 0.24452785147788852 0.2623432823927546 0.845976758026117 4.883368482229132 -5.607120395284356 -1.2830586390177645 -6.151603168860187 5.17815343009036 0.9363651752127036 0.10401474972076927 0.6887291171231364 -0.2790649660228097 0.2141242994853667 0.5367712638641853 -0.35135770204994976 -1.4863189992054338 -0.7048990420147795 -0.013383620395757596 0.8282844829526768 -0.25118623733467066 -0.06592694171011226 0.5539089519857364 -1.481432103426778 -2.474605802988093 -0.3772805925632986 -0.9735279003059298 0.7274129068465794 -0.20454565465799612 0.029793686322664818 0.21373529157706414 -0.13326439061450598 0.6505430929717184 -0.5853352888158176 0.8000650830956673 0.08611472951189686 0.04628834154357834 -0.9253405419674257 -0.8617628172157803 -0.22844071610803882 -1.1141567017053071 -1.5062645890894253 -0.3915862105526934 0.2182825446281144 0.37341905272536335 0.6010591273089777 0.6596591963403736 0.6932234054490641 0.27875411965061025 -1.358175988977893 -2.1348692301168395 0.06079964778587593 0.09484413896509472 1.688263211684841 -0.9344671868590423 0.8730936688475673 0.8984079792426399 0.4377686226460267 -0.19897433121780572 -0.7817104918478794 0.3551799040095173 -0.025886123738142513 -0.71216189422478 -0.5337903268589904 0.17474374080521518 1.54435188287945 0.15951561100155107 -0.6045956797073264 1.6177532785897364 -2.3018132723719775 -0.12388886293687695 0.32507228599085947 0.5006398082489507 0.5646564203102276 -1.7737235954421906 1.8117934057307186 -0.047350207149189416 -0.31855145415320624 -0.5096628376831674 0.6816665538494001 0.24817444709154035 -0.15799351793006983 1.1722788026590198 -1.7654852666927983 -0.7711504569438461 0.0508880450991188 -2.344624711110549 0.29793763455759653 -0.6258628166162189 2.459634526390241 -0.23426066522392555 0.8077801923517378 -0.18467308410378516 0.2527630949034873 -0.13060149907036217 -0.13448463617485226 -1.6314616293147646 0.13937667415983093 0.44859990893357576 1.43987562014123 0.2984991634880214 0.3620432067882539 0.20124667219175016 -0.6779037443728583 0.5405924373824883 0.7230523158850386 0.6277872873324414 0.05730089060399809 0.41735663464857803 0.40174129670882425 -0.030523108289521626 -0.2618105498177362 -2.990112501046547 0.7063925958411705 -0.32175042070647814 -1.0564310648590645 -0.47847561344708567 0.1757492992515941 2.959203984393149 -0.01923416563926365 1.0139914076376149 -1.8456170391483826 -0.8691105158301032 1.093996167597032 1.8512117596273407 1.2117094978508165 -1.619302368244411 -0.4264526834125752 -0.3006835727338499 0.12373665362972884 1.3480003339964721 -0.9313399540839703 -0.4762438959030896 -1.006535722690518 1.1043165756864337 0.3996561320450214 -0.35074012307060887 -0.07527444436328327 -0.273856939459309 -1.3663065885048276 -1.4872620798449934 0.37390653388474315 1.5225239883710813 1.4052004373565476 -0.8262774798249769 -0.37272665464402904 0.054559837523751195 0.5786429643973067 -1.096785814527027 1.6526500904669217 0.7268169251337935 -0.17979467296556131 -0.11149640280979507 0.14697428400143075 -1.073291588059829 0.1579500662866441 0.4770072564316753 2.2789769912037525 2.9927805347970136 1.0138106590853766 -2.510198098270406 0.5435088396983349 0.1788027413659372 -0.09584224121230592 -0.4428511793752567 -0.11869600588202782 0.059404310100246084 2.0663873831953574 -1.4286969778165912 -0.501394427026788 -1.4081417793730586 0.6442863134287291 0.507384583171952 0.1171381744766047 0.42909860567585456 1.888539806653838 0.9921344596635236 -0.2465374257087496 -1.668872465863055 -0.6101117244295492 1.3618398109827257 0.14335159964717892 0.26945958172256174 0.3429103426135449 4.68800809361483 -1.1732432234548182 2.2311858398624023 0.23004251337751996 -0.17247062850032233 -1.1762822673914581 -4.499574256917032 1.3029036987681497 -1.4040940916662463 -0.07813788195400737 1.443408572995153 -1.245307902631552 0.27503707581033926 0.12615503326323435 -0.24649397406532386 0.21603900000957632 -1.4465054667529218 1.8103690145793663 0.71061049057726 0.7155161554089935 -0.15496938639176536 0.23380043775805542 -0.3807022166503379 -0.18125788777464913 -0.43403769484868476 0.11888523907469849 0.6651199623446287 -0.887865170729787 0.5874258527962593 -1.4450833895944146 0.06930511415372581 -0.02197161917508474 -0.5062586970976249 -0.13089640460296167 -1.1856148576462937 -0.05421556681045502 0.31630251021802946 -0.47226254265783824 1.2265157096257135 0.16388880036858225 -0.08495567620678916 -0.7259826021579562 1.3263390469729543 0.024663821295267202 0.6756098061323591 -1.264316839633887 0.7766911842564171 -1.3366931365137689 0.6077977315843919 -0.8519617719649585 1.0804749931821456 0.2515762736842377 0.1994456144272694 -0.033747014543458013 -0.1768204208285858 -0.5537099486010528 -3.1116169229116477 1.5968111291204306 -0.5145083387009269 -0.7344225053951933 0.17033789842803568 0.04970970852030149 0.42475472688486204 -0.3559453214206322 0.5335686977664875 1.05311074223658 -0.27038826418441825 -1.0253572262723956 -0.7171218093332166 0.8655343684430706 -0.5946241703169114 -1.1666732835467841 0.22761513488294996 -0.4815120862805643 -0.2582984228994197 -0.10525247878261228 0.5609167507621372 -1.1273994256478264 0.31724764774011815 -0.18129568299112003 0.3874804159144359 -3.813134964269336 -0.16076542424825216 -0.38995201738338003 0.0023895832780991104 -0.2292899514822116 0.1080521530149365 2.586565775697868 0.5493267319316927 0.36304182325609735 1.0396739000053836 -0.0714617554854124 -0.326088900180832 -1.4870818455133872 1.4736473172750362 -0.30625078240898224 0.47651694705881803 -1.074925009898194 0.6240422184677124 -1.0360026218013836 0.5208962445051416 0.43382300773471744 0.7997377816632356 -0.7146041851176855 -0.6701688376224458 -0.3499549081651521 -0.48730015371725116 -0.14787417010788081
0.0766849515575647 -2.6153096805997795 0.02605298833330997 0.7859358427831368 0.3331488923514069 0.6296559651100639 -1.2072329501367014 0.3121023560937528 0.778576317094272 -0.8219395145712555 -1.6804773970918347 0.7838977293071854 0.8046167070220916 0.3566516034590374 -0.41577206377027753 0.24777129811585072 1.4082559363534197 -0.1409257638145057 -0.7640678390654518 0.41738697366588123 -0.6604279561855981 -0.6856445646605417 0.3527828645322505 -0.2990673772866656 0.5634567435751715 0.7088621404275857 0.6381084667527913 -0.49155841477297274 0.08658292739756701 -0.21627065640440818 0.3758312617112818 -0.05675298852032806 0.13652866318807452 0.7965593839352539 1.1555329506592489 0.5529548156025832 0.31828380231411635 -0.6194952225269783 -0.19559872987735347 -0.9245730676737819 0.6430467845946732 0.2663745150393348 0.2988963989264401 -0.1266509990630464 -0.3631585513396197 0.0861934052686322 -0.4600276911545432 1.1949929564270838 -0.07856957017478727 0.29087815660765387 -0.4672650894432469 0.2972051272669462 -0.05602382366378739 -0.36810715359414664 0.8859854372085709 0.9689819328064602 0.8966583435413849 -0.7896605999328916 -0.7096915783074165 -0.8114406719224606 -0.16657483184117763 -0.3780755776607682 -0.012816949259010184 -0.1594952992865769 -0.1522368179519507 -0.16274054569675198 -0.26568983026748433 0.5530391477862734 0.35780191501339664 0.5073377890944166 0.03175775202757111 -0.3304505195836373 -0.6240638157342672 -1.4188432249509628 -1.2385325315809315 1.0415888576399095 1.4061350333556752 0.6694232177056729 0.20202828755278113 -0.055203898865653314 -0.49900432952805673 0.5456346277920862 0.3486891540788511 0.7702860520610219 -0.6927585499975036 0.12852636170888831 0.013466409917551 -0.03981996021041529 -0.21244305512820186 -0.4193286707732843 0.8313556656788328 -0.36009662458484437 -1.3362287952828407 -0.9902614110105268 -0.5605920204328667 0.4795930148809805 0.7821401231861304 -1.0453215852094642 0.6349930610522613 -1.1713012692370988 0.1621929007233981 0.16801927759718804 0.47661387764799856 -0.0933600982204005 -0.32730040399042987 -0.13970474692321103 0.3735969730641243 -0.0003476131474058529 0.5117444028025445 -0.20692623907503074 -0.9979528661175134 -0.22685177435436416 -0.20330664004457244 0.18389583961812844 -0.16643804915299723 0.5161579584892079 0.33533227315597086 -0.8778491812546817 0.607927829404353 -2.0679832669275675 0.09972049322078955 0.2306994302352285 -0.06573410897301583 0.07255113189484924 0.3220445549081292 1.200827817941306 0.015909729251720985 0.6819128655322514 0.3762968884937906 0.2359820187904065 -0.5094743758214452 -0.6864007261002759 -0.5232806855769182 0.10963209590754669 0.07052433127280758 -0.7847418224750357 1.352559414122064 -0.19204109443308218 0.13890899049479302 -0.7377574833056971 0.02649110431199309 1.0192655115523606 -0.37662907502222875 0.03783661123179935 -1.053137224599141 -0.21652982360306577 0.7995814585910295 0.39272598058409136 0.12253080624708575 -0.40504593560202495 -0.43350984736967274 -0.4810379748576231 0.3783314024253162 -1.0122911371170566 0.931857260040021 -1.1700103183398172 -0.045296409943954244 -0.6581939246487568 0.26554122050476203 0.18285068618306574 -0.9150386458207853 0.23898815260658193 0.45438052017109487 1.0354539483867653 -0.7224455355389752 -0.5259152949862878 -0.6368609674989354 0.42707129083318063 -0.36589369088259566 -0.06979053843057657 0.4797243982525222 -0.6048311927569003 -1.5266418671941966 -0.656160953379128 -0.062198327905615455 0.29987470367930935 -0.0008186392465534288 -0.09807550141819883 0.20591836663580668 0.12682686251927835 0.3467466856404996 0.05189231799391708 -0.2993208880583684 -0.3844238884762992 -1.0970470386082138 0.4886181011977262 -0.042713736818442566 0.5471068414622384 0.4095237688677205 0.7090354327806563 -0.3083673145313528 1.0810851159623187 0.06351884648925189 0.17134397109504684 -0.2242071376426655 -0.5593733175344172 0.0007332786215987372 -0.26257365323600584 -0.9200515256543444 -0.34723879478556974 0.7728442997065013 0.5867735639242411 0.6493632137310043 -0.36171564824550606 -0.23591414166694855 -0.31301278372316416 -0.23240072919705138 0.8323095449516699 0.19528634084325722 -0.11349800662085614 0.08174822501308503 -0.007027853381058865 -0.0871611684985402 -0.5125933810664011 -0.23480882441791173 0.41283406418787605 0.6922828959126658 -0.12224104292080881 -0.7744098444214083 1.052453311158239 0.26531573475751724 -0.13585863370424345 1.0296327137192975 -0.5952443203994136 0.8982012625484725 1.3875811816128878 0.797317345147201 -0.12172322274412586 -0.6268480633476237 -0.01291619384103582 -0.442168037265303 -0.591234170798756 -0.4051300106753991 0.5318254898231357 -0.13251054316761693 1.052525044936439 -0.4348558198746059 0.4707401924760409 -0.3893017853938908 0.9314692805729828 0.2590198744464765 -0.44292728402883075 0.11484706444958284 0.32514556243095616 -1.6377058104522633 0.42011568545095396 -0.32096083492564725 1.0962389408846218 -0.47167144604105865 0.8145362801286488 -0.23872152920875658 0.16630435178861036 0.27963549381429903 1.1788749678192987 0.1350711048059416 0.07910178852917343 -0.27362733994700617 0.661717364420983 -0.7408741745578079 -0.689234081784013 -0.800504227515615 1.0710827533339682 0.44334920205759776 0.4627481754094998 0.26084278658782817 1.3710129928415613 0.04961792013744358 -0.6349501236294678 -0.03615510976431838 -0.8657513695498832 0.6182361533088965 -0.17708344468198534 -0.6433720291445759 -0.3868080724377596 0.5280526530442649 0.40138442759003773 -0.5315652941832136 -0.2635182765374623 -0.0808236563162866 -1.473998787077184 0.9083679186688293 -0.23277919558239263 0.3066762999821751 0.7664381390698414 -1.5546527505848258 1.0350909086203914 -1.2729997121198657 1.8157567612538406 0.876516064265555 0.6287432234878074 0.6089436722633771 -0.03449109179833414 -0.4610486762198898 0.2068064256677148 0.00916649699061647 0.30666550134889764 0.44415832822245443 -1.6598826036596188 -1.5915028295336398 -0.42753563206410883 1.0480191866462856 -1.2810536927725937 1.1833600001738458 0.6104084297343616 0.9822100014609602 -0.512499278690698 1.1362879863867075 -1.601824523174622 0.5823137283806745 -0.7680926439541287 0.7144918279095372 -0.9984190071206546 -0.08220922380990357 -0.21119401321244918 0.039932317418563484 1.068076876628109 0.7233032555535801 0.4778914588088415 1.559637605393927 -0.3269584472699788 -0.8876679671173163 0.35848711400587935 1.6601996206794052 -0.803917624072538 0.4750269927768529 -2.383201542942482 -2.1364599716427266 0.8532136420941887 0.8813651648277402 0.31060340295072314 -1.47611429075829 1.2118457663183646 1.5588145952719992 -0.1424386009146063 -0.273033158006433 0.11193631856069108 0.13262495725829418 0.5045985357863826 0.16690316171487385 0.18995464421769867 0.018585990532303472 -0.4307795929227033 1.7894019254093958 0.8417665765995116 0.6616201767214863 -0.14280241201192825 -0.7531365368649288 -0.1565760687572529 -0.9155142999056234 -0.24402725769238617 -0.08913294751293036 -0.08685057923665687 -0.25548769292350193 -0.6707303665528707 0.5625283182236313 -0.14027810292817777 0.02607895647523896 -0.6874834176414935 0.6686539436398161 0.0009214833730048647 -1.2814753536910446 -1.0381849741646831 0.4357855307777269 -0.06705257067412322 0.1266024052132981 0.49280154315145447 -0.6211867512967881 0.05003238196704286 -0.21089859345921744 0.15391600542658654 0.26690673339372095 -0.3788780189574056 -0.0003735812893348405 -0.9580038365284018 0.1663593733962619 0.16612848833237842 0.7572968388902055 0.13877786423356744 0.1948094012068387 0.3233915558543269 0.00845944362126285 -0.22861066602699984 0.15575100175279627 -0.2710161275764042 -0.244632752486869 0.34758537949171103 0.13747200093795034 -0.5182585497719784 0.9800376763999896 -1.0461366249115918 0.5755440137570088 -0.3536634673649909 0.7607809407840639 -0.6012820419530612 0.9077410837181076 -0.7674110445060719 0.4111250519165694 -1.7772861159824682 1.554181467375362 -1.2218962085758311 0.6222553017706186 -1.4250742934623393 0.3653542734393579 0.35715965344370754 -0.32486865462048564 -2.4206689437603215 1.6200562156913 -0.3309742532975913 0.26549468353754274 0.13599207395831417 -0.04730752683671208 0.5534224992676211 0.5162204362960271 0.6491788656343401 2.199002056041006 1.0191649814187544 1.6986774650396292 -0.6689637615707511 -0.2709883596622623 -1.2057568798118072 -1.236792408961373 -0.6297125293796123 -0.18142166704602303 0.02144351458575662 0.591472254951491 -0.2517541940229987 -0.05381344627602991 -0.42439605799386265 0.04158939340601225 -0.005497018558829243 0.15092684089127556 0.8431976526190833 2.0814098247461184 1.1916968021743155 1.0292809868068338 -0.8736670248525341 -0.5752802185726609 -0.4633068761264473 0.9292334492639287 0.8651582160505745 -0.1558507605554542 -0.35591652506522575 0.08454892768667374 0.8481778794424941 -0.11108811162778287 -0.25054706108877495 0.014497422285226646 0.18326103424760695 0.21735051973214825 -0.2987930405793564 -0.2963463788110767 -1.1514091582988621 0.826041709665087 -0.18291367821051724 0.21753538204944467 0.0346021634549017 0.8503576607026324 0.0915307583211456 -0.02391665871659752 -0.3878845933313901 -1.6721004858820494 0.7925260944061447 -0.10093739634702616 0.19428926703731056 0.2956534665091102 -1.0491851819299285 -0.8350523978041297 -1.0001257053991164 0.3527766938846634 0.27474911225627524 0.3269574188287143 -0.07141316163566411 -0.672474602937487 -0.1518992321068739 -0.07705647596437051 0.9144112966494317 0.19555656378550837 2.0063940333608605 0.539136164551936 1.5420134645542605 -0.4969626165076796 0.4008426961539548 -0.2595999153196626 -1.850120326335375 -1.4386360913071738 -1.5481154636869403 -0.20459784805217024 0.5448267871788101 -0.3517338544424458 -0.9246967377358398 -0.6779299696251034 0.3895686659020323 0.08407610181531328 -0.41813362202391857 -0.12770180892506394 -0.7478421212352088 2.099837435323687 -0.8318544596921221 -0.4725872729871087 -1.0264234627533806 -0.5705640440439141 1.0055427626496296 -1.1278108021536317 1.013987550982873 0.716516828759366 -0.3459535003152429 -1.9039360866042498 -0.26967246906431624 0.3559304090222967 1.2103735526482122 -0.7095990185936102 -0.9372223810066762 -0.8057557057225413 0.6597407003105864 1.0293511779231368 0.940871033502857 -0.11815144623246747 -0.5318817969823678 -0.11165246877168514 -0.6044534977025073 -0.4794379773603549 -0.8499205731652136 -0.03500736931312036 -0.256873517527435 -0.21115338978250087 -0.1814437785332101 0.02123165568526666 0.17824995418626077 -0.1958933782996368 0.9309406617630226 -0.42230446557215656 0.5513206224332698 -1.31966754849005 0.21373606290801253 -0.008363798583663014 0.20895972456529177 0.8042202429146214 -0.2532608604755122 0.18479778260710755 -0.13059224309898154 -1.2909760940926285 0.13189733506365026 -0.6253236562832973 1.3326369641665243 -0.41938986302852294 0.39967952908378906 -0.025977397900368168 0.5202010182103299 -0.1398700688564817 0.17144835788339507 -0.05555356889558819 0.6127419629635448 -0.3088825636048745 0.5757000797188987 -0.3576383928523389 0.4725908725315344 -0.35128905359554335 -0.7203806825901465 0.4042375807681168 -1.517169151817071 -0.9107713859039992 0.23734907434126223 0.12815483730208252 0.7756586292268447 -0.5521269203846492 0.7724151825888826 0.2182568335965015 -0.9472987914060718 -1.1313352703671227 0.9625364342914325 1.3732879049186673 0.822322608942287 0.32049366548124164 -0.5793690439300538 0.3028733812963171 -1.0550421549313378