12.543300098841748 0.0 0.0 0.0 12.543300098841748 0.0 0.0 0.0 12.543300098841748
12.527353343668013 0.0 0.0 0.0 12.527353343668013 0.0 0.0 0.0 12.527353343668013
12.484143907897113 0.0 0.0 0.0 12.484143907897113 0.0 0.0 0.0 12.484143907897113
12.68810097507236 0.0 0.0 0.0 12.68810097507236 0.0 0.0 0.0 12.68810097507236
12.606948475108094 0.0 0.0 0.0 12.606948475108094 0.0 0.0 0.0 12.606948475108094
12.587441415676558 0.0 0.0 0.0 12.587441415676558 0.0 0.0 0.0 12.587441415676558
12.619694237348499 0.0 0.0 0.0 12.619694237348499 0.0 0.0 0.0 12.619694237348499
12.515521470466437 0.0 0.0 0.0 12.515521470466437 0.0 0.0 0.0 12.515521470466437
12.599083843437544 0.0 0.0 0.0 12.599083843437544 0.0 0.0 0.0 12.599083843437544
12.689611246825002 0.0 0.0 0.0 12.689611246825002 0.0 0.0 0.0 12.689611246825002
12.6127768328809 0.0 0.0 0.0 12.6127768328809 0.0 0.0 0.0 12.6127768328809
12.840206613487085 0.0 0.0 0.0 12.840206613487085 0.0 0.0 0.0 12.840206613487085
12.513680462958575 0.0 0.0 0.0 12.513680462958575 0.0 0.0 0.0 12.513680462958575
12.539967869960746 0.0 0.0 0.0 12.539967869960746 0.0 0.0 0.0 12.539967869960746
12.698798821516435 0.0 0.0 0.0 12.698798821516435 0.0 0.0 0.0 12.698798821516435
12.521426029757246 0.0 0.0 0.0 12.521426029757246 0.0 0.0 0.0 12.521426029757246
12.567592507768426 0.0 0.0 0.0 12.567592507768426 0.0 0.0 0.0 12.567592507768426
12.66778850792971 0.0 0.0 0.0 12.66778850792971 0.0 0.0 0.0 12.66778850792971
12.658902564247038 0.0 0.0 0.0 12.658902564247038 0.0 0.0 0.0 12.658902564247038
12.766151967418468 0.0 0.0 0.0 12.766151967418468 0.0 0.0 0.0 12.766151967418468
12.662432705403964 0.0 0.0 0.0 12.662432705403964 0.0 0.0 0.0 12.662432705403964
12.455962046489038 0.0 0.0 0.0 12.455962046489038 0.0 0.0 0.0 12.455962046489038
12.301564012407725 0.0 0.0 0.0 12.301564012407725 0.0 0.0 0.0 12.301564012407725
12.444938226884616 0.0 0.0 0.0 12.444938226884616 0.0 0.0 0.0 12.444938226884616
12.43557126111955 0.0 0.0 0.0 12.43557126111955 0.0 0.0 0.0 12.43557126111955
12.577013449608744 0.0 0.0 0.0 12.577013449608744 0.0 0.0 0.0 12.577013449608744
12.625276527719421 0.0 0.0 0.0 12.625276527719421 0.0 0.0 0.0 12.625276527719421
12.547478482078906 0.0 0.0 0.0 12.547478482078906 0.0 0.0 0.0 12.547478482078906
12.637125334591664 0.0 0.0 0.0 12.637125334591664 0.0 0.0 0.0 12.637125334591664
12.677729630965839 0.0 0.0 0.0 12.677729630965839 0.0 0.0 0.0 12.677729630965839
12.500245711992894 0.0 0.0 0.0 12.500245711992894 0.0 0.0 0.0 12.500245711992894
12.429040156014052 0.0 0.0 0.0 12.429040156014052 0.0 0.0 0.0 12.429040156014052
12.30190321499828 0.0 0.0 0.0 12.30190321499828 0.0 0.0 0.0 12.30190321499828
12.421517901997305 0.0 0.0 0.0 12.421517901997305 0.0 0.0 0.0 12.421517901997305
12.51186591431113 0.0 0.0 0.0 12.51186591431113 0.0 0.0 0.0 12.51186591431113
12.34571697114112 0.0 0.0 0.0 12.34571697114112 0.0 0.0 0.0 12.34571697114112
12.552748557896901 0.0 0.0 0.0 12.552748557896901 0.0 0.0 0.0 12.552748557896901
12.615376151328334 0.0 0.0 0.0 12.615376151328334 0.0 0.0 0.0 12.615376151328334
12.71490327149826 0.0 0.0 0.0 12.71490327149826 0.0 0.0 0.0 12.71490327149826
12.606930483083012 0.0 0.0 0.0 12.606930483083012 0.0 0.0 0.0 12.606930483083012
12.778768081242822 0.0 0.0 0.0 12.778768081242822 0.0 0.0 0.0 12.778768081242822
12.448865780125017 0.0 0.0 0.0 12.448865780125017 0.0 0.0 0.0 12.448865780125017
12.675457873210378 0.0 0.0 0.0 12.675457873210378 0.0 0.0 0.0 12.675457873210378
12.610307692026723 0.0 0.0 0.0 12.610307692026723 0.0 0.0 0.0 12.610307692026723
12.627904421736105 0.0 0.0 0.0 12.627904421736105 0.0 0.0 0.0 12.627904421736105
12.501014077299425 0.0 0.0 0.0 12.501014077299425 0.0 0.0 0.0 12.501014077299425
12.492311228930843 0.0 0.0 0.0 12.492311228930843 0.0 0.0 0.0 12.492311228930843
12.531127435517993 0.0 0.0 0.0 12.531127435517993 0.0 0.0 0.0 12.531127435517993
12.674387347717879 0.0 0.0 0.0 12.674387347717879 0.0 0.0 0.0 12.674387347717879
12.55291577789474 0.0 0.0 0.0 12.55291577789474 0.0 0.0 0.0 12.55291577789474
12.605033911968272 0.0 0.0 0.0 12.605033911968272 0.0 0.0 0.0 12.605033911968272
12.541468616523636 0.0 0.0 0.0 12.541468616523636 0.0 0.0 0.0 12.541468616523636
12.440269296375313 0.0 0.0 0.0 12.440269296375313 0.0 0.0 0.0 12.440269296375313
12.549422679142399 0.0 0.0 0.0 12.549422679142399 0.0 0.0 0.0 12.549422679142399
12.771504594880962 0.0 0.0 0.0 12.771504594880962 0.0 0.0 0.0 12.771504594880962
12.599399762230933 0.0 0.0 0.0 12.599399762230933 0.0 0.0 0.0 12.599399762230933
12.65547878770899 0.0 0.0 0.0 12.65547878770899 0.0 0.0 0.0 12.65547878770899
12.818194429151204 0.0 0.0 0.0 12.818194429151204 0.0 0.0 0.0 12.818194429151204
12.701020307437103 0.0 0.0 0.0 12.701020307437103 0.0 0.0 0.0 12.701020307437103
12.680595654726282 0.0 0.0 0.0 12.680595654726282 0.0 0.0 0.0 12.680595654726282
12.453275413802228 0.0 0.0 0.0 12.453275413802228 0.0 0.0 0.0 12.453275413802228
12.43789223235539 0.0 0.0 0.0 12.43789223235539 0.0 0.0 0.0 12.43789223235539
12.262676366897448 0.0 0.0 0.0 12.262676366897448 0.0 0.0 0.0 12.262676366897448
12.625206676327918 0.0 0.0 0.0 12.625206676327918 0.0 0.0 0.0 12.625206676327918
12.746238499890914 0.0 0.0 0.0 12.746238499890914 0.0 0.0 0.0 12.746238499890914
12.589275014703505 0.0 0.0 0.0 12.589275014703505 0.0 0.0 0.0 12.589275014703505
12.660122317712293 0.0 0.0 0.0 12.660122317712293 0.0 0.0 0.0 12.660122317712293
12.724852861369722 0.0 0.0 0.0 12.724852861369722 0.0 0.0 0.0 12.724852861369722
12.761977288421765 0.0 0.0 0.0 12.761977288421765 0.0 0.0 0.0 12.761977288421765
12.668944760129962 0.0 0.0 0.0 12.668944760129962 0.0 0.0 0.0 12.668944760129962
12.63654165213085 0.0 0.0 0.0 12.63654165213085 0.0 0.0 0.0 12.63654165213085
12.502267698106015 0.0 0.0 0.0 12.502267698106015 0.0 0.0 0.0 12.502267698106015
12.588049969466164 0.0 0.0 0.0 12.588049969466164 0.0 0.0 0.0 12.588049969466164
12.645157186260054 0.0 0.0 0.0 12.645157186260054 0.0 0.0 0.0 12.645157186260054
12.736109518945819 0.0 0.0 0.0 12.736109518945819 0.0 0.0 0.0 12.736109518945819
12.240666828447608 0.0 0.0 0.0 12.240666828447608 0.0 0.0 0.0 12.240666828447608
12.683194443996506 0.0 0.0 0.0 12.683194443996506 0.0 0.0 0.0 12.683194443996506
12.722437696590797 0.0 0.0 0.0 12.722437696590797 0.0 0.0 0.0 12.722437696590797
12.355253802790067 0.0 0.0 0.0 12.355253802790067 0.0 0.0 0.0 12.355253802790067
12.44426193841234 0.0 0.0 0.0 12.44426193841234 0.0 0.0 0.0 12.44426193841234
12.240877970153742 0.0 0.0 0.0 12.240877970153742 0.0 0.0 0.0 12.240877970153742
12.422249754076459 0.0 0.0 0.0 12.422249754076459 0.0 0.0 0.0 12.422249754076459
12.511770662413628 0.0 0.0 0.0 12.511770662413628 0.0 0.0 0.0 12.511770662413628
12.712342053809829 0.0 0.0 0.0 12.712342053809829 0.0 0.0 0.0 12.712342053809829
12.604142248372197 0.0 0.0 0.0 12.604142248372197 0.0 0.0 0.0 12.604142248372197
12.65035899821817 0.0 0.0 0.0 12.65035899821817 0.0 0.0 0.0 12.65035899821817
12.694551116064982 0.0 0.0 0.0 12.694551116064982 0.0 0.0 0.0 12.694551116064982
12.650375402711628 0.0 0.0 0.0 12.650375402711628 0.0 0.0 0.0 12.650375402711628
12.645699063721409 0.0 0.0 0.0 12.645699063721409 0.0 0.0 0.0 12.645699063721409
12.602397551116255 0.0 0.0 0.0 12.602397551116255 0.0 0.0 0.0 12.602397551116255
12.614676049881682 0.0 0.0 0.0 12.614676049881682 0.0 0.0 0.0 12.614676049881682
12.576901264040572 0.0 0.0 0.0 12.576901264040572 0.0 0.0 0.0 12.576901264040572
12.74849967410221 0.0 0.0 0.0 12.74849967410221 0.0 0.0 0.0 12.74849967410221
12.729312766881726 0.0 0.0 0.0 12.729312766881726 0.0 0.0 0.0 12.729312766881726
12.651235844852412 0.0 0.0 0.0 12.651235844852412 0.0 0.0 0.0 12.651235844852412
12.637640753192601 0.0 0.0 0.0 12.637640753192601 0.0 0.0 0.0 12.637640753192601
12.695916393262534 0.0 0.0 0.0 12.695916393262534 0.0 0.0 0.0 12.695916393262534
12.676842200787432 0.0 0.0 0.0 12.676842200787432 0.0 0.0 0.0 12.676842200787432
12.506308495269002 0.0 0.0 0.0 12.506308495269002 0.0 0.0 0.0 12.506308495269002
12.363022653385904 0.0 0.0 0.0 12.363022653385904 0.0 0.0 0.0 12.363022653385904
12.406110378398886 0.0 0.0 0.0 12.406110378398886 0.0 0.0 0.0 12.406110378398886
