12.012367292257974 10.769715094765822 1.4084369948985445 11.935815531754743 11.211088738643864 0.969154319146978 4.926719782922765 8.167946158363769 1.6544738263373253 12.31553885564698 3.932061171684812 4.418565609318488 0.6083814130440718 3.4979250119638006 4.222977930877249 12.104284595382286 4.449045828558673 3.6425367188033473 4.514647288075616 9.223226538979425 6.452373917244985 5.27592525767452 9.699621076733433 6.846007760946837 4.426304825479473 6.9216438605428525 5.853506597325886 5.243714063020694 12.18871354834759 9.658591942110123 6.103005379591947 11.870402221739283 10.010331163481844 0.7090451593273066 11.65049308440639 11.233428356119902 4.7367013297254115 10.234918951751604 3.9898732418403737 4.503207798385473 9.424671938566823 3.5068056684337803 3.8767075883486237 10.765989734636465 3.933089722292917 4.245455524654373 3.167697550261594 6.041079107003965 4.458503476833201 4.142537747343377 6.008466526746976 4.582782494212524 2.7657725851944077 6.877478900894831 8.285276187488334 2.6878536049804027 1.3551405127785658 9.12763404892615 2.3401533262405096 1.7697969274460763 7.011403716050165 1.9213450792402824 1.2199751652434572 4.370712919441407 4.61802916749027 3.435597353772656 3.881248262984404 4.806316645273983 2.6280471501091256 4.27775452240889 5.378240956580771 4.038177490521013 2.2554107907727348 2.6767653276930266 4.162820263603204 2.960795815131199 3.2445879798674935 4.380935709021963 9.536909387851258 8.824550288637838 0.9630469863288519 10.01003012427947 6.664844877619267 5.226241245983007 9.420996751637862 6.699050456988808 4.4652768588865746 9.941217579937225 5.67997004045841 5.439477347663317 4.013442102726097 6.003072907704475 5.851436952809577 3.0903053886517404 6.0799507940102755 6.0450302465351 4.542618847296033 9.61377473085696 5.5592031471067616 1.5764168698222334 6.463399478031868 6.843273321525289 0.9377571846695671 5.846331829669348 7.278287512253221 3.369719941653539 1.8325636011406805 2.5077945320615296 4.8916988890468 8.757205310407157 0.637706394345154 5.28999884038542 8.030772628482836 0.1468005127067944 3.9312584004784865 8.802963269167732 0.5369134520709012 12.431451491860376 7.5142771603128296 5.259631510846124 0.1664081994213038 7.801581449076799 4.333233538746068 11.706762328649795 7.165548330964831 5.277618603187864 11.106164033317054 2.549300312088597 10.445897259414123 10.391910895788707 2.718321280920489 9.778016702351195 12.00441483999531 2.6554542608250946 9.996796942675193 5.647683586003991 2.47952193363874 8.427391777608213 5.297587536945219 1.6088413005777389 8.496542991053127 5.173333606166093 3.129064185957161 8.99779834960304 9.61140404713828 8.769673350705405 12.494142905754387 9.25098486209816 9.575166453152725 12.134940420823856 2.213603971543295 1.9929046063041744 4.826436098632525 1.9130288712747505 1.19698455049229 0.3216202491743815 2.248913361321535 2.085699940435406 0.0026880292111817867 2.0581172235180527 1.135733107449626 1.2915961544778336 3.0230733001219483 8.031675746089952 8.258132486074441 3.4361994321774003 8.517490302218192 7.499275373394615 2.4657368468301133 4.1069900348632595 0.8669301863314474 12.442251273245478 11.6947709337553 11.736602839584938 11.740516349215778 11.7337680537626 11.019264050232277 5.164929595099869 11.979717082100688 8.707709448217129 10.783776134176623 12.506811638854217 9.602711540169784 11.411806626825529 12.256660604983017 8.876993826351095 10.899500620888537 0.8639160313176957 9.849049410810936 11.693541690345615 2.7650074438883783 6.660329289583683 11.859288857851709 3.394116660345786 5.961015222473058 10.947064814863344 2.1247597769431987 6.389983542553347 11.825773159987603 5.515953848365955 2.093062857593426 11.308198968009098 5.2422339536090306 1.29607411261312 12.463148411210149 6.2506023918550175 1.8814950148262621 2.6672575062181045 3.5904694800930548 11.624904752204753 1.8866126812665893 3.7046135109925147 11.045379201038067 3.402922057015173 4.132264784562426 11.267044400384798 4.9409564285349505 7.967203183581906 2.6198062019441863 4.168991567251834 7.420240039471813 2.700384361779146 11.175327790062067 10.800559069708873 1.8522064090954666 6.681025734746772 7.325763903127336 11.93812349897293 8.077258098649144 7.730435850916169 12.01902778461046 7.020196569419452 6.575850163417985 12.476519569115514 2.241939286466579 4.373936547566809 1.363042791840836 1.3109379232302476 4.2869111314810455 1.4939446716723486 2.577597997111584 7.503075993324563 7.885445953537656 3.472487199363349 0.8770024563108172 2.3190554954742577 3.219300686868229 0.4113838676717227 3.1386347239325776 0.9632677484105915 6.98881323257215 6.306357360794369 10.571568583104419 2.0282516259827106 2.746644052543674 11.246812057325366 1.710216251976578 2.1075378259074893 10.926004613997389 2.7271643074901726 3.310164352784238 1.6081765056725004 9.729737540270753 9.852059802834658 2.111764918040799 9.029194229750441 9.428999377100924 2.2130269797387485 10.304785133302152 10.385476182838001 3.0860030367178375 11.607682801169043 11.355349233080643 3.9932599328670606 11.336220700429909 11.225526077057632 2.982696417103777 12.405261081253993 11.842681528520842 0.06244932820210341 11.329585294677623 8.118400122973345 0.632778131736319 10.79886572419553 8.771441956019343 12.304287515458318 10.767319324446941 7.353396793245085 2.6101604041681767 6.8261391735902714 2.6511644521912907 1.8924327725124521 7.295547093189226 2.681481608530191 5.913024556294889 1.595219276670397 4.998304396586855 8.315819123229016 5.299180536057772 1.1495633501386089 9.30849589305135 5.336308704350343 1.0530715054682491 8.059684935210667 4.375203420876792 1.4167532028640766 6.522164838994941 11.077477505991002 0.6042107657612069 6.983908802233503 11.430709380074484 12.338116795824895 7.760690290754575 6.076263063781216 8.412164211288218 4.712091374931484 4.354368999412616 10.34238994699848 5.480330876085245 4.286697895379365 10.904793893530249 9.621739726419726 9.620447766509544 2.9461954138161475 12.409513259987502 4.909159162784387 8.09711414270561 11.687056804194514 5.367002159692209 8.540557431099963 11.924551648265984 4.125378512808161 7.6954525869405 0.2883541629822433 8.238000489415802 2.8043432329983458 0.2929964383488246 9.02496713761713 2.295787673790906 11.939779214585977 7.844655141616222 2.585425016373261 8.364336608011335 11.163236048766784 10.581816459285172 9.084284403784554 11.80762300474458 10.44116843527686 8.537948424679403 10.284239207740251 10.091937873924907 8.910672587116487 4.222902671076656 5.773793925197746 8.556763374827666 3.6895866374741026 5.03604718658427 9.138785042714021 3.6650895723810644 6.465782705050647 3.400225247493922 12.405035301852214 4.920209810171466 4.059827226491614 0.2165086486760975 5.513921833749943 0.47513519042408586 1.6377034341051742 6.675594485803973 8.785916924333407 8.905517290775862 6.37889526526597 9.155756127747754 7.930727266894475 6.258291434815607 9.49443777371658 9.501236242370153 6.105012307607761 8.650562172966804 5.757199139166978 8.240847818538239 8.573383247458631 5.456109763594381 7.288121459530712 5.983530446150479 10.296845224339586 0.35146703175957544 6.5651256418334745 3.162466994120377 3.8920480443695067 5.706900505770623 3.6185288424141637 3.685698214443461 8.222409167392941 2.627194205702404 8.799250452338473 8.223237025199463 10.351910311773501 3.73770273665326 8.414472178506406 9.883154643779687 4.5644943626684125 6.513873717629607 10.353076838682693 3.5256707917824386 8.009323585313817 4.40457982970828 10.97148662015579 8.74437351440604 4.873699253404961 10.676242422429253 8.156719904775306 4.512690533260197 11.926081930878041 9.158917039372664 0.9759063775901845 6.244669410908265 9.752453456749755 0.28978786218354086 5.7775945451276955 8.436310063978489 1.11597991845397 5.63112642987352 8.758672876518721 8.877407755254357 9.146235762972733 8.009373758514213 8.23313368897745 9.38310344203926 8.838523524947947 8.865416360359864 8.147274799800877 1.0680456971262462 0.8316496461434352 6.397083050409291 0.86397874781819 0.1540517944939348 7.059193689426752 2.6500731850826913 12.256096156478568 5.478938569774273 6.248783613340685 0.44349220726473776 1.8556934465229447 5.34533988042151 0.6394185548086458 1.9255972579737899 6.313908427453871 12.176345854450132 1.304001478275588 2.1624649370403173 8.77331090773407 0.6600673354313592 2.273623662516253 9.71817261757962 0.31741448065123984 11.24059058047634 1.407358271090044 0.1884430147049391 10.001224727610085 8.898656105621797 2.3966483498856928 9.44721224884444 8.119177807579472 2.432509644868281 4.900704978517767 5.084226002263922 9.72954939076927 5.62224577340354 7.293076063069754 9.39317571201863 5.701970988831778 7.373792199205802 10.3800825637955 4.789044521037878 7.51199427969484 9.160309345683634 11.301187263253846 10.057393625452697 5.877188347912499 11.633521999372656 9.174633794396511 5.629997532864624 11.276213552757051 10.684194874691919 5.054159711926997 12.216873257069489 8.227213251330795 11.553094359138884 0.1268729718397645 8.85474201197575 10.953361551512963 11.530365899359783 8.798322248131159 11.91202089146724 10.725612851618294 4.830700820666132 0.15272220468345757 10.70041336171972 3.9413055838576585 12.32192339539729 10.816024958730745 5.518073666082659 11.979880145001975 6.136044432052295 0.6602931148331384 4.97647905441487 6.064723227690282 0.4070777527477903 4.06128224930308 2.274990882227027 6.176785070773334 1.9778150162852681 10.373760740545684 12.021135059027063 4.326309637091507 10.280576564111389 0.2582289191348551 3.6756761176644868 9.518771775908334 11.528710183746735 4.164802105018821 11.79755073476521 1.5661439070412817 0.9748539947118916 0.15080558842835456 1.4613195481152612 0.6926059102177645 1.5069520738748474 8.432521987348638 0.012261075846617809 9.168525207248376 2.56356204430098 8.585236666052035 9.269135017341185 2.2316161504852317 7.7063401714262945 6.776505335099155 2.7500809167707567 3.075479207934909 6.025675934482587 11.438862525138733 7.421268590079917 6.078734093900688 11.97429837645799 6.634490091380069 6.932029713024694 11.480506281466887 7.728102797097785 8.097515528308774 7.2438561534819 2.956593809598087 8.11974225608392 6.493214902366814 2.3318245749748785 6.501568740232642 7.3314460180721115 2.828739951690593 1.0315045552783006 2.751987498385781 9.494312340715592 1.8302807205226912 2.1517529587559063 9.403084919096717 0.9792767623267432 3.5069561880349664 8.840806405565937 11.019376939933167 6.408008264795382 10.283323546833035 11.224685675951008 7.1897694434556945 10.880873820241757 10.406987942507515 6.8659390648038965 9.688143957142993
1.0959617709474678 2.765525996794807 4.34996059299525 12.311669901150081 8.614346835299903 7.939924240690193 6.510014547983895 11.336691045119085 4.915382686161705 10.003718012586091 4.849062877560327 9.581696533144605 9.265318224450269 4.323264803019893 9.979916041233123 9.516165947803875 5.567331208872876 9.176073359229978 4.27537273118705 2.077473641747185 7.199908423973035 5.115757702893675 1.9035689226303856 7.74271864435417 3.8129630645655768 10.501555034463458 3.1191481269798675 11.586048013424799 1.367874238948454 8.888507963226079 11.338494984000574 2.1259294444804926 8.237636792902464 11.8904251176159 7.6501665578511515 0.6513547261626809 6.208180496521558 11.669768315820532 9.352045091648481 5.040831602545198 8.392124114336577 2.742500721349145 5.436746077618481 11.83690826413175 9.926173695388787 8.473814985490636 1.7041835668125653 0.12130612063274047 8.996806932882087 1.1617416506197342 12.091113318181462 7.30637840004087 4.288012830710811 11.165417070204459 3.715487728198496 3.843078822003755 3.379566748288038 4.07960778048555 3.3985707433103824 2.608696060285427 3.867582325143969 4.7763415914003335 3.3509793279577877 9.23567850643915 11.195808429416196 7.21693309716708 9.39278404472209 12.21668750809839 7.228771446076846 8.312725748844409 11.107653443936805 6.987632421564581 5.31006948060731 7.437226605715482 2.580935445275859 5.516770810777832 7.167575324993029 3.5175430180151976 3.077219075338611 8.38206464960161 11.471973933877356 10.463384188825302 6.31724363473153 4.517351088373342 9.855030855750096 6.696722222217923 5.182002347374992 9.944162974790293 5.773168151662685 3.83216749724142 4.57728194676945 10.09514263728818 2.6803024119978334 5.331679165125138 10.496481456359273 3.126301245739102 3.827595013270981 2.6259838078996887 7.9640895052901275 11.80295913657041 4.5824933257604155 11.57338285919435 11.134750109219159 4.698672000669593 10.85873493299812 8.464281669596105 5.642420164814822 2.206630654720402 4.215479454850974 5.720515685559248 10.628645034134971 4.925291822656547 5.4082212940549494 11.229344154317195 3.6128887043138547 6.401790742447946 11.104546660307575 1.4251868804957353 8.52544020861989 5.140236151327203 10.57898660548067 8.296452716850984 3.6843697824928245 1.2751718242053107 7.8192607732839825 4.526884404267873 9.524195981297167 10.177935915536482 9.697925317467156 10.336081224146946 9.691912187862195 9.678495392431126 9.377813857476406 10.498172649060669 8.75931336819283 7.8329406431352675 3.68981918119732 10.635510023767301 8.110459101757545 2.9891768360393116 11.28950050507349 3.975254927132796 11.028981664938568 11.30989503631698 2.547199282721361 7.584673554570455 11.252594922123043 2.132105429678921 7.650316886091276 10.36191262674159 4.607548032447752 7.53783378041848 8.039466590358979 2.9062958663176044 1.0889815296643761 12.3411091815077 2.3666174842723864 0.32028809567289446 0.14266651081902879 2.211015228390686 1.6665263426614996 11.986534972468522 0.4043829659336035 11.855298418840254 7.5716325797396955 0.9114614163725941 12.413642557367538 6.906505281310986 0.8550620188840664 6.434675044975076 2.547975978628668 11.29226905016244 8.428703986100087 0.6960698611875695 11.770074834043282 9.23437566169141 0.3489030761805009 12.061122834276722 0.7492058831300717 8.325403430428201 2.1197409319287206 0.5069719679355695 5.848382381138069 2.917958832280559 0.8051718341929086 6.336961688894465 1.8421723638930685 1.2610660243403407 5.237097647380444 10.356262790383596 0.4545387305156471 3.8079020138147346 9.758770672657352 12.351644685669726 3.3525577744790898 10.818472019351573 12.466846227018097 4.54002559792538 0.47163731509441953 6.613853779849559 0.2975321583241215 1.2840912997860023 6.896959438063113 12.379655847746168 0.08525365044499829 5.9010223198881615 12.289145719838166 6.542109627250372 1.995356840579441 8.769723598821416 9.09378117511542 2.3931754733609627 0.5598499263991922 6.926486409894137 2.7052318451517325 9.406276004273222 6.68131357760521 11.15364135806141 3.945226861168024 6.786067306264962 12.054170153170984 3.5926319739571437 0.5273339280603676 2.415987783799782 3.6219835628413577 2.231885799061237 10.922737181230922 3.8345476943767163 2.310958453366469 11.65319462734686 4.480407923362865 1.7202436337991478 11.167910013519847 3.0317072006410646 1.0090194332717433 6.271744287387328 3.484019820467542 0.07877325056031882 6.171738425644827 3.7279524447754455 0.10575716966257973 11.173772814884684 6.915975960438799 9.197632934334429 5.074530183039664 2.6781602345760662 8.755492525423012 4.35071223419587 3.13271525065106 12.413354428240634 3.8336457249359728 11.25982320500234 9.104892937531256 10.902405286754147 2.2238181835079147 9.751467225657994 10.271903592967336 2.589454045549553 8.292982639974788 10.790172728148226 2.830605597415162 3.1626305704357396 7.370418230333701 6.785691485664652 2.5236102763752335 6.685197057141748 7.069022636238392 2.739256136833135 7.740902178119339 5.966101920508517 1.1493483399568436 5.751545939791514 7.657820770744133 0.5031774326077725 5.552586513987379 6.864839304089948 0.8806052923518055 6.516077787002231 8.193653255312844 9.838620022869891 0.14137995163063408 10.851857416012448 10.40316520130229 0.6374167928325158 10.21576852263436 7.778897640810683 8.021013798883756 5.876894637348257 4.6552271392737525 9.455984542340895 12.217276293705542 5.518148819645636 9.140032163660244 11.80770700348766 5.319039065601377 2.9837900741015346 6.167955164935039 7.360872387085825 6.434700099681762 1.333311271073274 6.618188244106467 6.902521582947701 1.7521633301188138 7.866288457736111 6.974491227907074 0.6627095192333815 5.799976687818135 12.184842975898787 12.52365777443163 6.493227894503379 11.535500142683098 12.299054856333006 7.919003560606266 5.434541263429995 7.560996856750922 5.419909314724591 6.332451841690744 5.337667240023411 5.666572902061414 5.3679207983483685 5.246906565048536 6.125449855039974 8.35771147470152 9.515138704829695 10.679844327250542 3.37028397946038 7.4573455351854125 11.14014939851028 3.9029720983398315 6.727476874676627 10.463459352945364 3.958906731019309 8.214974810703767 10.954005455176716 9.121829919251896 3.382548258383831 1.829857975556243 3.364095466908608 3.9937954100814244 11.159103284119249 8.927718579191758 2.439426461905785 3.6037938457863516 11.654848237988222 10.628908108555187 3.6670193981118446 12.495872104715374 11.140111816450249 6.371198945582709 7.670673835274736 5.960239119143679 9.43171905891421 7.2566448072665075 6.6508470542734095 8.736851823647633 6.993983789709821 7.419876221334502 10.147319063964558 7.811293376557408 7.064362460794548 5.389643229046289 7.152730411280781 8.578856843277292 4.992388327165233 6.467910113395826 9.252289776972853 1.073427567752878 11.195633046469386 8.933055231716162 8.41744189544413 3.0305797388401348 4.27974477750399 9.008520008258417 2.7245364966543253 4.986725963453895 7.532309217593923 3.1414092338715656 4.568475217368851 7.878740646959717 6.051726380612487 8.293170550274942 6.970570166310505 6.4130403057505605 8.275870275307337 6.3026617954395014 0.4591575656934575 0.03645835643607702 7.205871444164622 0.993000706551195 2.301237227171783 7.555685258933207 1.2945391124746215 1.4162548775616999 10.7083190014007 3.815969629368057 0.20934084352003304 12.198572955163446 11.180612749810326 11.958373482151956 0.3642315457318131 11.037587956685668 11.215363627985662 11.359841594098185 11.52485189234098 11.553088546777607 2.9004080102460805 4.0425643966483245 8.782990066012362 3.3648471081092284 4.464272692256221 9.511155006466408 2.2797778708940797 4.667829656737482 8.352299658057056 12.127029240217759 1.9030553011432951 2.4093232318209505 11.485102600181522 1.2957417383956136 2.8954471783219877 11.606981220862068 2.4830592336017805 1.8577814461592792 5.895084354403263 4.695690490573799 12.423639385335784 6.121603957563468 5.41625132754824 0.5068955510801731 5.4880080075007704 4.019200882662384 0.46764484758379254 1.2984852287778768 10.775327814435979 9.79404769967312 9.833258315638801 11.831296009833787 10.413688178110972 2.114792627357972 11.228379548109734 10.077804780260545 0.7931117511289594 2.7389053709395124 10.458435884254554 0.2717521178781871 2.263780440674216 9.808779867205274 1.57571555827325 2.8998442793456154 9.859665976487253 1.1848195409494395 12.30524336888478 1.4916695446905812 0.7898220681409122 0.6019806684292821 1.9393345164265579 12.270843256603065 8.564350168105324 6.419003325942147 6.621545574802571 8.850424809061327 10.22437481438146 7.462782406536565 8.432574938283281 10.361637024968031 4.643050551823706 6.494217555417528 5.91143255051675 5.063330729150425 2.5505566134174638 1.5018542829589834 4.580902351885769 1.8096262999062191 1.1106488400075842 5.894846334689732 2.089261881243577 1.8047281047488448 6.947858074698434 8.420699007313484 5.913762638238671 1.5776948801015496 9.308299573772393 4.5800504918584 6.664614615598101 10.9325711536057 9.78083134189555 1.4026752265371638 8.37628953971018 8.829316218677246 2.1970347020591525 8.343430291889739 8.208711134031933 1.312478282462754 9.276517678339507 9.314300176024009 8.630544703173266 1.5628624937426467 6.85060823069154 7.971255151402706 1.9097073257687829 7.423095751143825 9.451061292476835 2.0320745132297318 7.05907591768352 5.623817045099476 3.634711353838525 5.4795896260538255 5.009588383306089 3.4815769865655266 4.7112995728400096 4.908179457989097 9.737549336093178 0.635374834237498 11.321207236386314 11.135952735140151 5.4590447665702095 11.351586068244707 10.440747261333293 4.700313083957613 10.441135609286947 11.085843321765479 5.832485169744953 11.671321707635148 8.572392728951959 7.220340537276559 11.442208942332803 5.2920300917924274 5.189831943214784 0.4781690771278081 11.98790045398298 0.852724414750138 10.374840855392257 3.2929902093299486 0.9680512296319457 10.08786424499551 4.117290059343304 1.4877985925073878 7.522086897265489 1.7285492690659996 2.8964117845294504 8.664944815454978 7.989219376097526 11.896425719867517 8.415237081255645 8.8546339997848 12.211025144387051 9.506908233682905 7.978195305155099 12.304842493577782 7.955207611769468 10.457145566860154 12.403307490859012 8.531804104118475 10.70101555440134 0.6335633789440035 8.497316300363357 10.778171523644993 11.638850807768359 12.04937217684036 4.789633113297966 5.773092987542624 6.809255437304092 1.125453666189131 9.16184228583157 0.10990372361933386 4.233681699259323 5.090402339726092 6.690195471125872 10.981565632532787 6.614743221936959 6.673070579105078 9.980154060946651 6.560224180185316 6.4064383905384465 11.208210509226427 7.483389902786899