-29878.858750436513
-29914.826379391783
-29915.850200634763
-29915.76046075614
-29916.49904084466
-29917.8655485143
-29915.64304227419
-29916.365348730644
-29917.677354039257
-29917.497542167068
-29919.158428573868
-29917.020126328447
-29914.661720586868
-29913.252316347483
-29913.134213499226
-29916.425322212515
-29918.689402277007
-29915.983469883868
-29916.950464641526
-29918.068937962144
-29917.189143172545
-29911.559074108638
-29913.146097662957
-29914.71942096579
-29914.519267767817
-29915.745049044657
-29917.14626701132
-29916.818632697716
-29917.684534171054
-29914.416854187162
-29912.302968172262
-29911.665454020607
-29913.44325998863
-29913.840968785866
-29915.98179869673
-29913.10292095201
-29916.13748182667
-29915.983697915264
-29915.226975588947
-29918.200596977615
-29912.96917468734
-29916.605465383298
-29915.167998451896
-29913.273620684136
-29917.643395456704
-29917.79969478843
-29917.246611438353
-29913.87989072483
-29916.235416005373
-29914.96298911037
-29916.44697118135
-29915.800442714568
-29917.412028080304
-29916.82554207625
-29917.135735661544
-29917.58778912983
-29917.026531616095
-29914.90152172353
-29917.158736219808
-29915.573400587633
-29914.701883501002
-29913.666231156483
-29913.47919575034
-29913.74047047846
-29918.41881091528
-29917.20312846328
-29915.61912006635
-29916.39081042253
-29914.024811616393
-29916.556933472006
-29913.79743982355
-29916.43702011433
-29914.390914799438
-29917.557109246918
-29915.086113003177
-29912.53378696716
-29915.66384115939
-29912.800625198768
-29914.42716321994
-29912.19616457904
-29913.760614929877
-29914.392394418435
-29915.699819234796
-29916.511582979656
-29916.650811793945
-29917.56810985702
-29916.329048744574
-29915.41573456415
-29917.103702828623
-29914.245959893644
-29916.092044121833
-29916.006015195686
-29916.420504437
-29916.03215948513
-29917.685565346448
-29916.365150631773
-29915.520537848537
-29914.395746452752
-29913.667511043925
-29914.25662117778
-29914.530033407624
