6.592417520311073 -43.6274276919862 44.23944460385826 -6.104673079967551 43.66437033064882 -44.445008415368136 0.556937454399415 0.504157591594222 0.4589462851649063 -0.7178442893215379 -0.4744078711356153 0.15943950634797704 0.7982306009900898 -0.3072450280014515 0.0038923930758707156 -0.13714572794678317 0.7984913108506442 -0.5109406759543266 1.0441879858256533 0.271499494970726 -0.09436488533583104 -0.4736542807990423 -0.3413594531866573 0.2310041059598409 -0.9834947817106546 -1.6333215653416389 0.26754642386024885 -0.1949407845783804 0.2940794371537709 1.2603128606808165 -0.5248554862632058 0.29484614011646637 -0.9858969633942438 0.3528620545096181 0.15613126791035045 -0.012463679684649502 -1.1540059724917608 0.9103530674196579 -0.6557953425095931 0.7235379972722055 -0.8572165926059947 -0.4819270623307958 1.9554519950953548 0.07761903333605988 0.40217272781928803 0.36824213651011417 0.4293140641207703 0.039744883998105746 -0.14172717666987852 -1.2954752675145624 0.5409788741876296 0.11031626645876486 1.1006869493536464 -0.6306419831724172 -3.5961292294711167 -0.8403648111559785 -0.5557064102057914 -1.2084719647501252 -0.5323772485615477 0.24266585856848533 4.171424874662745 0.39509345237500343 1.2472123187431166 0.06182603216786127 -0.2642286723409256 -0.16399370137756272 -0.17683301923407613 0.052793746762263914 0.27462184264979156 -0.20557461014314274 -0.13482607867467103 0.06035227583581218 -1.7318945752215464 -0.8745872226739584 -1.5041442003123127 1.5339281164429646 1.0151460900673486 0.7355172811212687 0.45425916410188216 0.6539122665542674 -0.6054518570600347 -0.26912405276001394 -1.6757655934384625 0.7501923666349403 -0.5511061924296187 0.4874698465258959 -0.5900062119289258 -0.014468111709187985 1.4033255889313379 -0.10847972747065834 2.8433508472765547 1.286031091382527 -1.2060970367600454 -1.6389489388307452 0.4530589731461939 0.5740142073760437 -0.21177431119595141 -0.14408384982751316 -0.07968182940235954 0.11331288719324356 -0.5932802546945073 0.45396040191454073 0.5587097158084894 0.125270573775752 -0.13511867021442536 -0.06538058228833901 -0.7147245127456336 0.5700899326209731 -0.11849108896007335 2.5869727813282997 -3.6541621131451323 0.7588266452711706 -0.27386131033468314 -1.3003017423689283 -0.7731520607549072 -0.3704445434780717 -0.5492848229501637 13.457164487693335 7.3246815846023665 -0.9449647439562565 -0.6385900343749003 -0.40145179049286345 1.3082389949381341 -12.788467092410093 -6.26205030446986 -0.21453207644674663 0.4963892605027128 0.2587357675471544 -0.32693864977563697 0.5096430401888254 -0.03422755372430234 0.3013083508020424 -1.2974370192266234 -0.19631452499745547 0.6412932922386763 0.7284061239977843 1.5994069148720649 -0.3936837165116704 -0.506990690167643 -0.8959412628697021 0.9651733576936475 0.19539304162445056 -1.1041070307787888 -0.06902692079167466 -1.0318261218261906 -1.447635980812939 -0.5320478902465868 -0.3548022089551245 0.744521541502408 -0.26300636989805026 0.165479799004786 -0.22473395668041296 0.5641622542826285 -0.2696616704310388 0.951716203747477 -0.5170902404954901 -0.22785399036663337 -1.0071651287444008 0.42938219835454433 0.6116638994080176 -0.0379422835717282 -0.809761998668457 10.22291519995973 12.099772428069317 7.514596633831381 0.14490223196375046 0.1593906553879126 0.7675118317499943 26.281134143885414 -32.133654765950276 -60.40806697463988 -1.222899453029365 0.569645903105019 -1.4626530230470616 0.7975520868658263 0.2934024656914043 0.6086063435286163 0.800336591589499 -0.4574234207624768 0.5847542195013672 -0.12133730015961683 -1.9249525409549169 -0.510657854606585 -0.33735470290263836 0.029213388339162594 0.5889602871629147 0.37841162084394825 1.6523060768639415 0.34142733031011524 -1.5911068796468018 -2.138471859866433 1.3011363224550818 -0.10785160696835619 0.2978409610787322 -1.5729338082822006 1.4533276318810775 1.542194213106499 0.2513672429972252 1.9599241719340956 1.6291921165542973 1.67576842165194 0.5708226970219396 -0.04288342962708744 -0.23033587624822266 -1.1371076540745255 -1.3100886465523631 0.054245134496809795 -0.7298726812409817 -0.20080675644085416 0.04575869429235345 0.6830323238486753 -0.1505756281994439 0.12151573471901007 -0.3582171481739444 -0.378483097511832 -0.3581461857266929 2.420380208875309 -1.4477604222059453 4.555888615238045 -1.1297170180374092 -1.1779205743258294 0.6477645017853166 -0.2717848874216287 -0.5853563718617403 0.8733554071493862 4.96833881372394 0.3523586325106383 0.95204607628307 -3.5346132723445063 -0.007289848793193897 -0.09493052803131394 -0.6843896092075181 -0.12769178162273492 -0.28303552063478354 -26.175601157747902 32.83505607922445 61.12237239757023 -0.5495061949323504 -0.2891056380882634 -0.13330038605876396 -10.053223676866441 -11.913969858346778 -7.638725637803522 0.3139208973597303 0.26575796450125844 0.23745114713676527 0.2830182942436029 0.6845415614043502 0.13358783539219574 -0.10444746638281367 0.22144217330301863 -0.5824474257450615 -2.6138078992432727 0.3837682571701713 2.508686546721886 0.2906521566397769 0.3266110912328891 0.14760086184183613 0.14242625961943214 -0.20804826849461588 -0.010596030348291428 -0.35930009682547803 1.0247584163461319 1.4899116016526985 0.7161635591850053 -0.41779732173042244 -0.7198163254462442 -0.38089787760091176 -0.4632942777209569 -0.5666479968189596 -0.930025606147921 -2.3649806490590817 -0.6006986586457654 0.37211216098848177 0.8268315525562341 -0.19412214533182698 0.0768019367514032 1.2809629328310004 0.9588327601876001 0.7991937362343075 -1.0831386560572378 0.09311224387565255 -0.8420540259329433 0.3089188161594486 -1.2758333249139189 0.24452785147788852 0.2623432823927546 0.845976758026117 4.883368482229132 -5.607120395284356 -1.2830586390177645 -6.151603168860187 5.17815343009036 0.9363651752127036 0.10401474972076927 0.6887291171231364 -0.2790649660228097 0.2141242994853667 0.5367712638641853 -0.35135770204994976 -1.4863189992054338 -0.7048990420147795 -0.013383620395757596 0.8282844829526768 -0.25118623733467066 -0.06592694171011226 0.5539089519857364 -1.481432103426778 -2.474605802988093 -0.3772805925632986 -0.9735279003059298 0.7274129068465794 -0.20454565465799612 0.029793686322664818 0.21373529157706414 -0.13326439061450598 0.6505430929717184 -0.5853352888158176 0.8000650830956673 0.08611472951189686 0.04628834154357834 -0.9253405419674257 -0.8617628172157803 -0.22844071610803882 -1.1141567017053071 -1.5062645890894253 -0.3915862105526934 0.2182825446281144 0.37341905272536335 0.6010591273089777 0.6596591963403736 0.6932234054490641 0.27875411965061025 -1.358175988977893 -2.1348692301168395 0.06079964778587593 0.09484413896509472 1.688263211684841 -0.9344671868590423 0.8730936688475673 0.8984079792426399 0.4377686226460267 -0.19897433121780572 -0.7817104918478794 0.3551799040095173 -0.025886123738142513 -0.71216189422478 -0.5337903268589904 0.17474374080521518 1.54435188287945 0.15951561100155107 -0.6045956797073264 1.6177532785897364 -2.3018132723719775 -0.12388886293687695 0.32507228599085947 0.5006398082489507 0.5646564203102276 -1.7737235954421906 1.8117934057307186 -0.047350207149189416 -0.31855145415320624 -0.5096628376831674 0.6816665538494001 0.24817444709154035 -0.15799351793006983 1.1722788026590198 -1.7654852666927983 -0.7711504569438461 0.0508880450991188 -2.344624711110549 0.29793763455759653 -0.6258628166162189 2.459634526390241 -0.23426066522392555 0.8077801923517378 -0.18467308410378516 0.2527630949034873 -0.13060149907036217 -0.13448463617485226 -1.6314616293147646 0.13937667415983093 0.44859990893357576 1.43987562014123 0.2984991634880214 0.3620432067882539 0.20124667219175016 -0.6779037443728583 0.5405924373824883 0.7230523158850386 0.6277872873324414 0.05730089060399809 0.41735663464857803 0.40174129670882425 -0.030523108289521626 -0.2618105498177362 -2.990112501046547 0.7063925958411705 -0.32175042070647814 -1.0564310648590645 -0.47847561344708567 0.1757492992515941 2.959203984393149 -0.01923416563926365 1.0139914076376149 -1.8456170391483826 -0.8691105158301032 1.093996167597032 1.8512117596273407 1.2117094978508165 -1.619302368244411 -0.4264526834125752 -0.3006835727338499 0.12373665362972884 1.3480003339964721 -0.9313399540839703 -0.4762438959030896 -1.006535722690518 1.1043165756864337 0.3996561320450214 -0.35074012307060887 -0.07527444436328327 -0.273856939459309 -1.3663065885048276 -1.4872620798449934 0.37390653388474315 1.5225239883710813 1.4052004373565476 -0.8262774798249769 -0.37272665464402904 0.054559837523751195 0.5786429643973067 -1.096785814527027 1.6526500904669217 0.7268169251337935 -0.17979467296556131 -0.11149640280979507 0.14697428400143075 -1.073291588059829 0.1579500662866441 0.4770072564316753 2.2789769912037525 2.9927805347970136 1.0138106590853766 -2.510198098270406 0.5435088396983349 0.1788027413659372 -0.09584224121230592 -0.4428511793752567 -0.11869600588202782 0.059404310100246084 2.0663873831953574 -1.4286969778165912 -0.501394427026788 -1.4081417793730586 0.6442863134287291 0.507384583171952 0.1171381744766047 0.42909860567585456 1.888539806653838 0.9921344596635236 -0.2465374257087496 -1.668872465863055 -0.6101117244295492 1.3618398109827257 0.14335159964717892 0.26945958172256174 0.3429103426135449 4.68800809361483 -1.1732432234548182 2.2311858398624023 0.23004251337751996 -0.17247062850032233 -1.1762822673914581 -4.499574256917032 1.3029036987681497 -1.4040940916662463 -0.07813788195400737 1.443408572995153 -1.245307902631552 0.27503707581033926 0.12615503326323435 -0.24649397406532386 0.21603900000957632 -1.4465054667529218 1.8103690145793663 0.71061049057726 0.7155161554089935 -0.15496938639176536 0.23380043775805542 -0.3807022166503379 -0.18125788777464913 -0.43403769484868476 0.11888523907469849 0.6651199623446287 -0.887865170729787 0.5874258527962593 -1.4450833895944146 0.06930511415372581 -0.02197161917508474 -0.5062586970976249 -0.13089640460296167 -1.1856148576462937 -0.05421556681045502 0.31630251021802946 -0.47226254265783824 1.2265157096257135 0.16388880036858225 -0.08495567620678916 -0.7259826021579562 1.3263390469729543 0.024663821295267202 0.6756098061323591 -1.264316839633887 0.7766911842564171 -1.3366931365137689 0.6077977315843919 -0.8519617719649585 1.0804749931821456 0.2515762736842377 0.1994456144272694 -0.033747014543458013 -0.1768204208285858 -0.5537099486010528 -3.1116169229116477 1.5968111291204306 -0.5145083387009269 -0.7344225053951933 0.17033789842803568 0.04970970852030149 0.42475472688486204 -0.3559453214206322 0.5335686977664875 1.05311074223658 -0.27038826418441825 -1.0253572262723956 -0.7171218093332166 0.8655343684430706 -0.5946241703169114 -1.1666732835467841 0.22761513488294996 -0.4815120862805643 -0.2582984228994197 -0.10525247878261228 0.5609167507621372 -1.1273994256478264 0.31724764774011815 -0.18129568299112003 0.3874804159144359 -3.813134964269336 -0.16076542424825216 -0.38995201738338003 0.0023895832780991104 -0.2292899514822116 0.1080521530149365 2.586565775697868 0.5493267319316927 0.36304182325609735 1.0396739000053836 -0.0714617554854124 -0.326088900180832 -1.4870818455133872 1.4736473172750362 -0.30625078240898224 0.47651694705881803 -1.074925009898194 0.6240422184677124 -1.0360026218013836 0.5208962445051416 0.43382300773471744 0.7997377816632356 -0.7146041851176855 -0.6701688376224458 -0.3499549081651521 -0.48730015371725116 -0.14787417010788081
1.2922323350972327 1.0583408802872676 0.23600387316727744 0.30625001107803385 -0.18695519526974252 0.15247258811184064 0.3826212880499217 -0.6585353671485755 -0.7251909594945962 -0.06541503507070025 -0.5848820033284831 0.027500776523430054 -0.08158675973455627 0.21522293186618413 -0.0392013527898099 -0.1628899267904227 0.49385878077137535 -0.01722407718777034 0.4127577024239859 0.6548252652868399 2.9196586180003585 -0.8845152804209477 -0.1965227843535196 -0.8351984364636906 -0.4448548400688468 -0.15549723387077738 -0.0387912618355848 -0.47798478985359616 1.3234650678592692 -0.9176835396428003 0.0717800580567796 -0.7019582142189007 0.8863155668544801 0.6743617926578709 0.17595473039418086 -0.4784781845502469 0.041185730209690366 0.4058172665504108 0.3203543116898999 -0.009420264872635389 -0.5905818819267378 -0.622937672549624 -0.09403964078592836 -0.1959455716938109 -0.2628467043917344 -0.8587320008092567 2.6441142635362977 1.2238106519897245 1.1162254113088776 -1.301128866255914 -0.9475376468897553 -0.6706828011443868 0.3755327566342565 0.5533767336313501 -0.7383953740000121 -0.5466715536970327 1.3132942979738544 0.4903854775107942 -0.07123961217227731 -0.6648911341632743 0.12583133137522848 0.7809319618106423 -0.41768393608100973 2.348217056447498 2.48773642683278 0.7049075266552118 -0.8319398203170769 -2.176750700841974 0.036932354249975104 -1.3763133220085522 0.1022229479276691 -0.5713623715754934 -0.032695433350492076 0.5724892860910851 1.62040357172839 -0.3400019107174983 0.0034632759582520997 -0.8852449594981205 -0.19522000638169604 -0.31047381935139434 -0.2225274359473974 -0.16062658467754273 -0.05802465614390007 -1.2339451693205652 0.054526670292970605 -0.17473268506162165 0.5119079249636023 0.15191517294647386 0.7957348311514296 0.4422371999403416 -0.10486192821241296 -0.8207138696942705 -0.4759106809333868 0.6742085549094582 0.30394116043919917 0.23982761778874181 0.29919413267251693 -0.6384383392883843 -2.1835764655145553 0.008862849707268607 -0.985335177353503 -0.06065258068505038 0.5386283716775819 0.2592145069557858 0.011640926673038017 0.7642850972825805 -0.6715358931733015 0.5626165070620633 -0.39383026939186366 0.39927098079146073 -0.1942311601058655 -0.41339147935324294 -0.05916185507213682 0.3091018787045322 0.9369274754740767 -0.844520742305881 -0.7640225876498132 0.34203539620775936 0.8261291271725708 0.4882694596090559 -0.16062658467754273 -0.6654652614991894 0.46991512547158426 -0.33964272760586667 -1.064710274148721 -0.9856941033548184 -0.40239744223558443 1.0797571411795144 -0.0830836559950569 0.5650798810008913 -0.44757043922779693 -0.0614557933126361 0.253150303039577 -0.11083382952513171 0.35193260071681326 0.8181738768812361 -1.2882661513606328 -0.2040039232219132 -0.4418944718889422 0.4164181819947086 -0.35280883267417945 -0.20206016923198103 0.08137567216501468 -0.699311520624673 -0.022594083250432054 -0.01387675798209223 0.4408156370024667 0.26292409459688915 0.6167076324795121 0.27216206825538936 1.5574261995649048 -1.2013469236695697 0.9433899432699688 -0.42682112249558746 -0.4233169659970709 -0.06832475251832748 0.4664369371149967 0.9145835605612378 0.3587077146571177 0.20743223217717177 0.003969783281025422 -0.03704599700970394 0.3198614312138814 -0.2710071287153397 -1.6823365617877608 0.19318317845732536 -0.1824850753135309 0.7901156851924392 0.6373371358044057 0.08031457789035201 -0.6649250727250033 -0.49952266392537187 1.807587852289803 0.16923258117899886 -0.5289263138984697 -1.1909820354954779 0.21194914621091887 0.13047474368451076 -0.7773046494707 -0.09570828673760291 -0.1453488325828658 0.9171999151381623 -0.6465738239113251 -0.39573931348911845 0.21401734159385724 -0.3099315736946791 0.379056967737431 -0.5230382305488088 0.9515863630378321 0.06199829607966742 -0.24272010884518846 0.7504566760399205 0.4735722626081973 0.272219403855886 0.1079030290315819 -0.576468068233175 0.21770918862314764 -1.0038982850676712 0.35926847225659414 -0.28257657872049396 0.6393724210668796 0.05314418812314718 0.23940544264965866 -0.15346631948367764 -0.153233120426949 -0.4514018971587452 -0.2224572448310943 1.2503899451401497 0.5723139368554853 1.172421498884471 -0.1957188003949855 -1.010727906394995 -0.6699194406158011 -0.7474418004729966 -1.304588028449108 -1.0053890106805845 0.3821176089406258 1.1222376789412287 0.8693190322964836 -0.037768734108341404 -0.16556824495353423 -0.381318252967782 0.16889216712044464 0.4817501704332994 -0.526287590724042 -0.22554539683811478 -0.32705872029326905 -0.044369527254310676 -0.44776532884742243 0.06719089602420042 -0.4246811933344492 0.2986868540187953 0.6885558247700657 0.5305733625835896 -0.7371357905612983 0.2980803307830479 -0.1861949200649503 -0.008193077333753632 0.016657148940706797 0.6068569649376775 -0.5081194044554476 0.45182304385656386 0.7744725793385435 -0.9923676587202522 1.2812110442860645 -1.5407474533576433 -0.19361769489158268 -0.6174720214493624 0.5032762174305332 -0.5009395988775566 0.896172662154218 -0.037713455390373754 -1.473470939598172 0.05381241783476539 1.6796592720659136 -0.047434796443195724 -0.14049921780004837 0.1256140731580998 1.3274201958522753 0.2108314876667079 -1.0348656799834628 0.07833637111805863 0.036683728574278755 -0.1276457588761479 -0.11892303429116938 -0.27036152471154085 -0.05531625607380151 0.008159652992656913 0.3114235848591734 0.6173547791452078 -0.5912899637373559 0.06482882354992706 -1.1275948294880838 0.7246577126989455 0.3791107037935019 1.4909009621491613 -0.39921544496317696 -0.21584668149311215 -0.40687553261159604 0.9030683608327866 1.551302088945038 -0.23156589200058186 -0.12026412170009611 0.25522724017326365 0.26747854673679095 2.584719723628065 -0.5807034464707612 0.0791562959161927 1.6265593069171405 -0.04161638998920575 1.1305899075606656 -1.185355947557952 0.4886965198441454 0.1926211353062683 -0.31909652802339883 0.665578390038286 -0.38442234581440243 1.3826742312295737 -0.6264199746712695 -0.7589904245425444 -0.4209281540499203 1.0653985584649974 0.3541170099626418 -0.8268464649545696 0.01947739199832129 0.38480698284733084 -0.5351609819542719 -0.531224108793711 -0.6417231806872433 -0.16966169829661748 -0.04102323648989709 0.32498178315958226 -0.19688736678178995 -0.3995262913353765 -0.0854164178932916 0.184222883940244 -0.1543680053623406 -0.7697453490662034 -0.9102887898406259 0.8096776664847668 0.9821711778032246 0.5268378068005571 0.06459870981699198 0.6421430418334811 0.16392453870252416 -0.2474116007835868 -0.542599183399872 -0.09839817486494021 -0.3141576959608848 0.8150476725474286 0.1337053348066665 0.1154024227324206 -0.1762419226172965 0.2525450653554102 0.4812290078225067 -0.43697055222476355 -1.1696071693641275 -1.3474899700189569 0.14716248875283686 0.18991839166312452 -0.10828895161609092 -0.0567380761219926 0.822816260749254 -0.2016775890815817 0.9810854009382137 -0.406937496197783 -0.08013665755159102 -0.25510022767709617 -1.0239752583232042 -0.9156271713344037 -0.25091678572336784 -1.2470595952153363 0.19708534172520897 1.8464889002303746 1.8542847421257096 0.6629075280743422 -1.72644383651962 -0.3481062849921876 -0.42109193332129413 -0.508198594432815 -1.8106721476420817 -0.534205560019538 0.08131525124072447 0.14396737885430688 1.3947990395175656 -0.7934396073593497 -0.3708487208950258 0.22087190262184545 -0.16729165540254415 1.4360264215984688 -0.05493136193055701 -1.2323847668119807 -0.8897793570333643 -0.17507644155428556 -0.07880045523867074 -1.3247688742723571 0.06972574663091217 1.4574326551883867 -0.023848267372507316 -0.07918226405812169 0.22636326475371982 -0.4294878706944733 0.19772631774331756 0.07422003495683992 0.28005072697484673 0.6994477890922212 -0.016355301429571832 -0.012585807084810581 2.0587087836041773 0.6245142730081245 0.44082257898100213 -0.766679565656686 0.415429335718878 0.7937913342718136 -0.5084071108991953 -0.7000777093667362 0.2663426333601348 -0.4969371625863828 -0.9949647300234671 -1.5581980447339228 0.3690291511877838 0.7405669277300343 1.22916780253658 -0.09052185744065701 0.381536282515859 -0.10911299017928305 -1.0157325586984378 -0.538212367186086 0.08027009780566177 0.7067178403910732 0.2963952297711412 0.13046445927186562 0.00016455060232229725 0.281840728995734 0.8096794662569798 -1.6880850342357638 1.454354273373379 -0.010306524132330637 0.4788412243166204 -0.41141275836031727 -0.6892672490147935 0.5151040633033968 -0.5819805134109719 -0.20774693520411316 0.0863741538208706 0.011848928918786045 0.5596088305839911 0.09848764925495297 -0.07969134248405631 -0.010769836921994356 -0.324651396403357 -0.2515235660694314 -0.3794439187632046 -0.08623711402237406 -0.007247425591032679 -0.6133657125904727 -1.6846842360843308 -0.7278101422849982 0.9156857924864811 -0.04943151515825035 0.34397066555725925 1.8383331038924597 0.3673085689522513 -0.8139233291349982 -1.3357929932970027 -0.8536412165499104 -0.16254951273186843 -0.43930202857141765 0.6836799847350032 1.0355673340361777 -1.056585845269374 0.30971200148470535 0.2970063809925788 0.365936371195073 -1.2291523759176122 -1.1193770695639818 -0.7846711171381002 0.040301270722208016 0.9207261831238658 -1.1625435776491269 0.8932259208210682 -0.21841907020597867 0.6781186885971419 -0.3987858136249261 0.039500629197783584 0.14013592092335866 -0.661217799076745 -0.22788072983951077 0.8317626713092643 -0.6986057528069001 -0.052115232638000566 -0.5096877773838319 0.08436020871463536 -0.3083225773363464 -0.6615186181466155 0.1939100293210209 0.12501372056993956 -1.3941097267600249 1.7803876377259273 0.09818271642002445 0.20279653317737334 0.27798176026095994 0.14504055731382762 -0.12553719717357734 -0.26918164547082674 -0.028874259832188977 0.8444572360577971 -0.3245580653586023 0.2883525619723228 -1.2667856128893538 0.4951075655768118 0.8197193669914851 0.8143203074631009 -0.47112020152327894 -0.717570466834861 1.4329462400112485 -1.2359406024840391 -0.9276511923784735 -1.1209333583075083 0.4746148449400987 1.068217258860715 -0.04324724072440939 0.4392470069637661 0.21775983935542495 -0.006276319927014997 -0.8336560316772351 -1.0538221664813077 0.25450913106031653 0.13480062475337432 0.7893710937169309 -0.8201346001520328 -0.4536179309734575 -1.631707169666667 1.1260449685024607 -1.4230066123000331 -2.1246881758187794 -0.2100437016580899 1.3403587582908143 1.6345574946312686 -0.7260767045336592 -0.5097044895543802 0.7316261735969787 0.6403543253641746 0.14641764016701236 -1.129754556143564 -0.6788758784781406 0.8568772069887048 0.0048984657428818865 0.6411202569959217 0.36519460793304204 0.7138418530303642 -0.5019166180788452 1.8893522752528042 0.4851180584642678 -0.16407700511998838 -1.33387186501489 0.3144996526813358 0.08061565407053858 -1.1335448764239315 -0.368381747411772 -0.6987132249190419 -1.4063080685984295 -0.45525649501814497 -1.1213102820309528 1.332430504582673 -0.0062598648667827675 2.191436327878607 -0.5080697821644347 0.4428563215815792 1.106810545752881 0.6832053590914298 -1.1370603457763577 -0.29281059774367635 0.04069259262335573 0.5989706202110653 -0.8002712855692024 -0.5304021271130478 0.5126990534063299 2.402368859899553 -2.1115272129567897 -1.769956157979958 -0.46947392416910755 0.6170927837330726 -0.3466453841759449 -1.2502688461812532 0.7834259318770895 1.9450480261532115 0.33465427325233976 -1.2777120299938705 -1.0391897612801135 0.04061983040389133 0.6488075983378503 -0.2171872546814066 -0.7707462795268919 0.5244934749380966 1.5071086822572752