12.543300098841748 0.0 0.0 0.0 12.543300098841748 0.0 0.0 0.0 12.543300098841748
12.660327638469132 0.0 0.0 0.0 12.660327638469132 0.0 0.0 0.0 12.660327638469132
12.639804029620349 0.0 0.0 0.0 12.639804029620349 0.0 0.0 0.0 12.639804029620349
12.755902863247076 0.0 0.0 0.0 12.755902863247076 0.0 0.0 0.0 12.755902863247076
12.575689977410653 0.0 0.0 0.0 12.575689977410653 0.0 0.0 0.0 12.575689977410653
12.639967545377731 0.0 0.0 0.0 12.639967545377731 0.0 0.0 0.0 12.639967545377731
12.563478684150686 0.0 0.0 0.0 12.563478684150686 0.0 0.0 0.0 12.563478684150686
12.59401062154106 0.0 0.0 0.0 12.59401062154106 0.0 0.0 0.0 12.59401062154106
12.642427161042159 0.0 0.0 0.0 12.642427161042159 0.0 0.0 0.0 12.642427161042159
12.645698534544199 0.0 0.0 0.0 12.645698534544199 0.0 0.0 0.0 12.645698534544199
12.629034215075938 0.0 0.0 0.0 12.629034215075938 0.0 0.0 0.0 12.629034215075938
12.619729692221458 0.0 0.0 0.0 12.619729692221458 0.0 0.0 0.0 12.619729692221458
12.517367240569174 0.0 0.0 0.0 12.517367240569174 0.0 0.0 0.0 12.517367240569174
12.654452713101993 0.0 0.0 0.0 12.654452713101993 0.0 0.0 0.0 12.654452713101993
12.620878535940793 0.0 0.0 0.0 12.620878535940793 0.0 0.0 0.0 12.620878535940793
12.66839653254211 0.0 0.0 0.0 12.66839653254211 0.0 0.0 0.0 12.66839653254211
12.733752563659813 0.0 0.0 0.0 12.733752563659813 0.0 0.0 0.0 12.733752563659813
12.707457748176726 0.0 0.0 0.0 12.707457748176726 0.0 0.0 0.0 12.707457748176726
12.517082014053871 0.0 0.0 0.0 12.517082014053871 0.0 0.0 0.0 12.517082014053871
12.632686596167995 0.0 0.0 0.0 12.632686596167995 0.0 0.0 0.0 12.632686596167995
12.332720908081166 0.0 0.0 0.0 12.332720908081166 0.0 0.0 0.0 12.332720908081166
12.031128529255856 0.0 0.0 0.0 12.031128529255856 0.0 0.0 0.0 12.031128529255856
12.27707157449629 0.0 0.0 0.0 12.27707157449629 0.0 0.0 0.0 12.27707157449629
12.698696161138015 0.0 0.0 0.0 12.698696161138015 0.0 0.0 0.0 12.698696161138015
12.44117736446485 0.0 0.0 0.0 12.44117736446485 0.0 0.0 0.0 12.44117736446485
12.694270652144555 0.0 0.0 0.0 12.694270652144555 0.0 0.0 0.0 12.694270652144555
12.475430475984366 0.0 0.0 0.0 12.475430475984366 0.0 0.0 0.0 12.475430475984366
12.136011451951529 0.0 0.0 0.0 12.136011451951529 0.0 0.0 0.0 12.136011451951529
12.305471986091417 0.0 0.0 0.0 12.305471986091417 0.0 0.0 0.0 12.305471986091417
12.52701414107746 0.0 0.0 0.0 12.52701414107746 0.0 0.0 0.0 12.52701414107746
12.524888965408712 0.0 0.0 0.0 12.524888965408712 0.0 0.0 0.0 12.524888965408712
12.426585302944499 0.0 0.0 0.0 12.426585302944499 0.0 0.0 0.0 12.426585302944499
12.53993453179662 0.0 0.0 0.0 12.53993453179662 0.0 0.0 0.0 12.53993453179662
12.64492646499721 0.0 0.0 0.0 12.64492646499721 0.0 0.0 0.0 12.64492646499721
12.646284333713847 0.0 0.0 0.0 12.646284333713847 0.0 0.0 0.0 12.646284333713847
12.547159388222271 0.0 0.0 0.0 12.547159388222271 0.0 0.0 0.0 12.547159388222271
12.573686512499824 0.0 0.0 0.0 12.573686512499824 0.0 0.0 0.0 12.573686512499824
12.444341314993595 0.0 0.0 0.0 12.444341314993595 0.0 0.0 0.0 12.444341314993595
12.675653668777468 0.0 0.0 0.0 12.675653668777468 0.0 0.0 0.0 12.675653668777468
12.758882660107313 0.0 0.0 0.0 12.758882660107313 0.0 0.0 0.0 12.758882660107313
12.524159230038393 0.0 0.0 0.0 12.524159230038393 0.0 0.0 0.0 12.524159230038393
12.576290064364926 0.0 0.0 0.0 12.576290064364926 0.0 0.0 0.0 12.576290064364926
12.525518686286652 0.0 0.0 0.0 12.525518686286652 0.0 0.0 0.0 12.525518686286652
12.55301896745037 0.0 0.0 0.0 12.55301896745037 0.0 0.0 0.0 12.55301896745037
12.732421153803594 0.0 0.0 0.0 12.732421153803594 0.0 0.0 0.0 12.732421153803594
12.669557018160027 0.0 0.0 0.0 12.669557018160027 0.0 0.0 0.0 12.669557018160027
12.528506949982225 0.0 0.0 0.0 12.528506949982225 0.0 0.0 0.0 12.528506949982225
12.608230671483936 0.0 0.0 0.0 12.608230671483936 0.0 0.0 0.0 12.608230671483936
12.699284606193704 0.0 0.0 0.0 12.699284606193704 0.0 0.0 0.0 12.699284606193704
12.558555219404164 0.0 0.0 0.0 12.558555219404164 0.0 0.0 0.0 12.558555219404164
12.564506875466515 0.0 0.0 0.0 12.564506875466515 0.0 0.0 0.0 12.564506875466515
12.530483956032633 0.0 0.0 0.0 12.530483956032633 0.0 0.0 0.0 12.530483956032633
12.54348266497863 0.0 0.0 0.0 12.54348266497863 0.0 0.0 0.0 12.54348266497863
12.450353297257697 0.0 0.0 0.0 12.450353297257697 0.0 0.0 0.0 12.450353297257697
12.567797299348058 0.0 0.0 0.0 12.567797299348058 0.0 0.0 0.0 12.567797299348058
12.475448468009448 0.0 0.0 0.0 12.475448468009448 0.0 0.0 0.0 12.475448468009448
12.531714293042056 0.0 0.0 0.0 12.531714293042056 0.0 0.0 0.0 12.531714293042056
12.330230070961443 0.0 0.0 0.0 12.330230070961443 0.0 0.0 0.0 12.330230070961443
12.327319596315501 0.0 0.0 0.0 12.327319596315501 0.0 0.0 0.0 12.327319596315501
12.658571828491816 0.0 0.0 0.0 12.658571828491816 0.0 0.0 0.0 12.658571828491816
12.465458131492941 0.0 0.0 0.0 12.465458131492941 0.0 0.0 0.0 12.465458131492941
12.663672567603136 0.0 0.0 0.0 12.663672567603136 0.0 0.0 0.0 12.663672567603136
12.551082708045003 0.0 0.0 0.0 12.551082708045003 0.0 0.0 0.0 12.551082708045003
12.65912376032013 0.0 0.0 0.0 12.65912376032013 0.0 0.0 0.0 12.65912376032013
12.544190704083407 0.0 0.0 0.0 12.544190704083407 0.0 0.0 0.0 12.544190704083407
12.6592232456353 0.0 0.0 0.0 12.6592232456353 0.0 0.0 0.0 12.6592232456353
12.583701720345124 0.0 0.0 0.0 12.583701720345124 0.0 0.0 0.0 12.583701720345124
12.114728473808757 0.0 0.0 0.0 12.114728473808757 0.0 0.0 0.0 12.114728473808757
12.559373327368277 0.0 0.0 0.0 12.559373327368277 0.0 0.0 0.0 12.559373327368277
12.59165789967272 0.0 0.0 0.0 12.59165789967272 0.0 0.0 0.0 12.59165789967272
12.623114309646088 0.0 0.0 0.0 12.623114309646088 0.0 0.0 0.0 12.623114309646088
12.575531224248145 0.0 0.0 0.0 12.575531224248145 0.0 0.0 0.0 12.575531224248145
12.58426846913527 0.0 0.0 0.0 12.58426846913527 0.0 0.0 0.0 12.58426846913527
12.649322869244214 0.0 0.0 0.0 12.649322869244214 0.0 0.0 0.0 12.649322869244214
12.320493210327738 0.0 0.0 0.0 12.320493210327738 0.0 0.0 0.0 12.320493210327738
12.5569041865141 0.0 0.0 0.0 12.5569041865141 0.0 0.0 0.0 12.5569041865141
12.22198263957506 0.0 0.0 0.0 12.22198263957506 0.0 0.0 0.0 12.22198263957506
12.551808739174863 0.0 0.0 0.0 12.551808739174863 0.0 0.0 0.0 12.551808739174863
12.65953810607427 0.0 0.0 0.0 12.65953810607427 0.0 0.0 0.0 12.65953810607427
12.756736317350232 0.0 0.0 0.0 12.756736317350232 0.0 0.0 0.0 12.756736317350232
12.523355409858903 0.0 0.0 0.0 12.523355409858903 0.0 0.0 0.0 12.523355409858903
12.49560006528076 0.0 0.0 0.0 12.49560006528076 0.0 0.0 0.0 12.49560006528076
12.777019150569215 0.0 0.0 0.0 12.777019150569215 0.0 0.0 0.0 12.777019150569215
12.535433350462364 0.0 0.0 0.0 12.535433350462364 0.0 0.0 0.0 12.535433350462364
12.41644785516407 0.0 0.0 0.0 12.41644785516407 0.0 0.0 0.0 12.41644785516407
12.702478719823327 0.0 0.0 0.0 12.702478719823327 0.0 0.0 0.0 12.702478719823327
12.64563132903874 0.0 0.0 0.0 12.64563132903874 0.0 0.0 0.0 12.64563132903874
12.53753047973907 0.0 0.0 0.0 12.53753047973907 0.0 0.0 0.0 12.53753047973907
12.609840957728956 0.0 0.0 0.0 12.609840957728956 0.0 0.0 0.0 12.609840957728956
12.500861145086212 0.0 0.0 0.0 12.500861145086212 0.0 0.0 0.0 12.500861145086212
12.621799833460537 0.0 0.0 0.0 12.621799833460537 0.0 0.0 0.0 12.621799833460537
12.553954023577528 0.0 0.0 0.0 12.553954023577528 0.0 0.0 0.0 12.553954023577528
12.395983514162623 0.0 0.0 0.0 12.395983514162623 0.0 0.0 0.0 12.395983514162623
12.19229791489526 0.0 0.0 0.0 12.19229791489526 0.0 0.0 0.0 12.19229791489526
12.537263245248852 0.0 0.0 0.0 12.537263245248852 0.0 0.0 0.0 12.537263245248852
12.51058742217575 0.0 0.0 0.0 12.51058742217575 0.0 0.0 0.0 12.51058742217575
12.44082281573525 0.0 0.0 0.0 12.44082281573525 0.0 0.0 0.0 12.44082281573525
12.606173230497857 0.0 0.0 0.0 12.606173230497857 0.0 0.0 0.0 12.606173230497857
12.592025148655317 0.0 0.0 0.0 12.592025148655317 0.0 0.0 0.0 12.592025148655317
12.689282627778613 0.0 0.0 0.0 12.689282627778613 0.0 0.0 0.0 12.689282627778613
12.542156017717287 0.0 0.0 0.0 12.542156017717287 0.0 0.0 0.0 12.542156017717287
