12.012367292257974 10.769715094765822 1.4084369948985445 11.935815531754743 11.211088738643864 0.969154319146978 4.926719782922765 8.167946158363769 1.6544738263373253 12.31553885564698 3.932061171684812 4.418565609318488 0.6083814130440718 3.4979250119638006 4.222977930877249 12.104284595382286 4.449045828558673 3.6425367188033473 4.514647288075616 9.223226538979425 6.452373917244985 5.27592525767452 9.699621076733433 6.846007760946837 4.426304825479473 6.9216438605428525 5.853506597325886 5.243714063020694 12.18871354834759 9.658591942110123 6.103005379591947 11.870402221739283 10.010331163481844 0.7090451593273066 11.65049308440639 11.233428356119902 4.7367013297254115 10.234918951751604 3.9898732418403737 4.503207798385473 9.424671938566823 3.5068056684337803 3.8767075883486237 10.765989734636465 3.933089722292917 4.245455524654373 3.167697550261594 6.041079107003965 4.458503476833201 4.142537747343377 6.008466526746976 4.582782494212524 2.7657725851944077 6.877478900894831 8.285276187488334 2.6878536049804027 1.3551405127785658 9.12763404892615 2.3401533262405096 1.7697969274460763 7.011403716050165 1.9213450792402824 1.2199751652434572 4.370712919441407 4.61802916749027 3.435597353772656 3.881248262984404 4.806316645273983 2.6280471501091256 4.27775452240889 5.378240956580771 4.038177490521013 2.2554107907727348 2.6767653276930266 4.162820263603204 2.960795815131199 3.2445879798674935 4.380935709021963 9.536909387851258 8.824550288637838 0.9630469863288519 10.01003012427947 6.664844877619267 5.226241245983007 9.420996751637862 6.699050456988808 4.4652768588865746 9.941217579937225 5.67997004045841 5.439477347663317 4.013442102726097 6.003072907704475 5.851436952809577 3.0903053886517404 6.0799507940102755 6.0450302465351 4.542618847296033 9.61377473085696 5.5592031471067616 1.5764168698222334 6.463399478031868 6.843273321525289 0.9377571846695671 5.846331829669348 7.278287512253221 3.369719941653539 1.8325636011406805 2.5077945320615296 4.8916988890468 8.757205310407157 0.637706394345154 5.28999884038542 8.030772628482836 0.1468005127067944 3.9312584004784865 8.802963269167732 0.5369134520709012 12.431451491860376 7.5142771603128296 5.259631510846124 0.1664081994213038 7.801581449076799 4.333233538746068 11.706762328649795 7.165548330964831 5.277618603187864 11.106164033317054 2.549300312088597 10.445897259414123 10.391910895788707 2.718321280920489 9.778016702351195 12.00441483999531 2.6554542608250946 9.996796942675193 5.647683586003991 2.47952193363874 8.427391777608213 5.297587536945219 1.6088413005777389 8.496542991053127 5.173333606166093 3.129064185957161 8.99779834960304 9.61140404713828 8.769673350705405 12.494142905754387 9.25098486209816 9.575166453152725 12.134940420823856 2.213603971543295 1.9929046063041744 4.826436098632525 1.9130288712747505 1.19698455049229 0.3216202491743815 2.248913361321535 2.085699940435406 0.0026880292111817867 2.0581172235180527 1.135733107449626 1.2915961544778336 3.0230733001219483 8.031675746089952 8.258132486074441 3.4361994321774003 8.517490302218192 7.499275373394615 2.4657368468301133 4.1069900348632595 0.8669301863314474 12.442251273245478 11.6947709337553 11.736602839584938 11.740516349215778 11.7337680537626 11.019264050232277 5.164929595099869 11.979717082100688 8.707709448217129 10.783776134176623 12.506811638854217 9.602711540169784 11.411806626825529 12.256660604983017 8.876993826351095 10.899500620888537 0.8639160313176957 9.849049410810936 11.693541690345615 2.7650074438883783 6.660329289583683 11.859288857851709 3.394116660345786 5.961015222473058 10.947064814863344 2.1247597769431987 6.389983542553347 11.825773159987603 5.515953848365955 2.093062857593426 11.308198968009098 5.2422339536090306 1.29607411261312 12.463148411210149 6.2506023918550175 1.8814950148262621 2.6672575062181045 3.5904694800930548 11.624904752204753 1.8866126812665893 3.7046135109925147 11.045379201038067 3.402922057015173 4.132264784562426 11.267044400384798 4.9409564285349505 7.967203183581906 2.6198062019441863 4.168991567251834 7.420240039471813 2.700384361779146 11.175327790062067 10.800559069708873 1.8522064090954666 6.681025734746772 7.325763903127336 11.93812349897293 8.077258098649144 7.730435850916169 12.01902778461046 7.020196569419452 6.575850163417985 12.476519569115514 2.241939286466579 4.373936547566809 1.363042791840836 1.3109379232302476 4.2869111314810455 1.4939446716723486 2.577597997111584 7.503075993324563 7.885445953537656 3.472487199363349 0.8770024563108172 2.3190554954742577 3.219300686868229 0.4113838676717227 3.1386347239325776 0.9632677484105915 6.98881323257215 6.306357360794369 10.571568583104419 2.0282516259827106 2.746644052543674 11.246812057325366 1.710216251976578 2.1075378259074893 10.926004613997389 2.7271643074901726 3.310164352784238 1.6081765056725004 9.729737540270753 9.852059802834658 2.111764918040799 9.029194229750441 9.428999377100924 2.2130269797387485 10.304785133302152 10.385476182838001 3.0860030367178375 11.607682801169043 11.355349233080643 3.9932599328670606 11.336220700429909 11.225526077057632 2.982696417103777 12.405261081253993 11.842681528520842 0.06244932820210341 11.329585294677623 8.118400122973345 0.632778131736319 10.79886572419553 8.771441956019343 12.304287515458318 10.767319324446941 7.353396793245085 2.6101604041681767 6.8261391735902714 2.6511644521912907 1.8924327725124521 7.295547093189226 2.681481608530191 5.913024556294889 1.595219276670397 4.998304396586855 8.315819123229016 5.299180536057772 1.1495633501386089 9.30849589305135 5.336308704350343 1.0530715054682491 8.059684935210667 4.375203420876792 1.4167532028640766 6.522164838994941 11.077477505991002 0.6042107657612069 6.983908802233503 11.430709380074484 12.338116795824895 7.760690290754575 6.076263063781216 8.412164211288218 4.712091374931484 4.354368999412616 10.34238994699848 5.480330876085245 4.286697895379365 10.904793893530249 9.621739726419726 9.620447766509544 2.9461954138161475 12.409513259987502 4.909159162784387 8.09711414270561 11.687056804194514 5.367002159692209 8.540557431099963 11.924551648265984 4.125378512808161 7.6954525869405 0.2883541629822433 8.238000489415802 2.8043432329983458 0.2929964383488246 9.02496713761713 2.295787673790906 11.939779214585977 7.844655141616222 2.585425016373261 8.364336608011335 11.163236048766784 10.581816459285172 9.084284403784554 11.80762300474458 10.44116843527686 8.537948424679403 10.284239207740251 10.091937873924907 8.910672587116487 4.222902671076656 5.773793925197746 8.556763374827666 3.6895866374741026 5.03604718658427 9.138785042714021 3.6650895723810644 6.465782705050647 3.400225247493922 12.405035301852214 4.920209810171466 4.059827226491614 0.2165086486760975 5.513921833749943 0.47513519042408586 1.6377034341051742 6.675594485803973 8.785916924333407 8.905517290775862 6.37889526526597 9.155756127747754 7.930727266894475 6.258291434815607 9.49443777371658 9.501236242370153 6.105012307607761 8.650562172966804 5.757199139166978 8.240847818538239 8.573383247458631 5.456109763594381 7.288121459530712 5.983530446150479 10.296845224339586 0.35146703175957544 6.5651256418334745 3.162466994120377 3.8920480443695067 5.706900505770623 3.6185288424141637 3.685698214443461 8.222409167392941 2.627194205702404 8.799250452338473 8.223237025199463 10.351910311773501 3.73770273665326 8.414472178506406 9.883154643779687 4.5644943626684125 6.513873717629607 10.353076838682693 3.5256707917824386 8.009323585313817 4.40457982970828 10.97148662015579 8.74437351440604 4.873699253404961 10.676242422429253 8.156719904775306 4.512690533260197 11.926081930878041 9.158917039372664 0.9759063775901845 6.244669410908265 9.752453456749755 0.28978786218354086 5.7775945451276955 8.436310063978489 1.11597991845397 5.63112642987352 8.758672876518721 8.877407755254357 9.146235762972733 8.009373758514213 8.23313368897745 9.38310344203926 8.838523524947947 8.865416360359864 8.147274799800877 1.0680456971262462 0.8316496461434352 6.397083050409291 0.86397874781819 0.1540517944939348 7.059193689426752 2.6500731850826913 12.256096156478568 5.478938569774273 6.248783613340685 0.44349220726473776 1.8556934465229447 5.34533988042151 0.6394185548086458 1.9255972579737899 6.313908427453871 12.176345854450132 1.304001478275588 2.1624649370403173 8.77331090773407 0.6600673354313592 2.273623662516253 9.71817261757962 0.31741448065123984 11.24059058047634 1.407358271090044 0.1884430147049391 10.001224727610085 8.898656105621797 2.3966483498856928 9.44721224884444 8.119177807579472 2.432509644868281 4.900704978517767 5.084226002263922 9.72954939076927 5.62224577340354 7.293076063069754 9.39317571201863 5.701970988831778 7.373792199205802 10.3800825637955 4.789044521037878 7.51199427969484 9.160309345683634 11.301187263253846 10.057393625452697 5.877188347912499 11.633521999372656 9.174633794396511 5.629997532864624 11.276213552757051 10.684194874691919 5.054159711926997 12.216873257069489 8.227213251330795 11.553094359138884 0.1268729718397645 8.85474201197575 10.953361551512963 11.530365899359783 8.798322248131159 11.91202089146724 10.725612851618294 4.830700820666132 0.15272220468345757 10.70041336171972 3.9413055838576585 12.32192339539729 10.816024958730745 5.518073666082659 11.979880145001975 6.136044432052295 0.6602931148331384 4.97647905441487 6.064723227690282 0.4070777527477903 4.06128224930308 2.274990882227027 6.176785070773334 1.9778150162852681 10.373760740545684 12.021135059027063 4.326309637091507 10.280576564111389 0.2582289191348551 3.6756761176644868 9.518771775908334 11.528710183746735 4.164802105018821 11.79755073476521 1.5661439070412817 0.9748539947118916 0.15080558842835456 1.4613195481152612 0.6926059102177645 1.5069520738748474 8.432521987348638 0.012261075846617809 9.168525207248376 2.56356204430098 8.585236666052035 9.269135017341185 2.2316161504852317 7.7063401714262945 6.776505335099155 2.7500809167707567 3.075479207934909 6.025675934482587 11.438862525138733 7.421268590079917 6.078734093900688 11.97429837645799 6.634490091380069 6.932029713024694 11.480506281466887 7.728102797097785 8.097515528308774 7.2438561534819 2.956593809598087 8.11974225608392 6.493214902366814 2.3318245749748785 6.501568740232642 7.3314460180721115 2.828739951690593 1.0315045552783006 2.751987498385781 9.494312340715592 1.8302807205226912 2.1517529587559063 9.403084919096717 0.9792767623267432 3.5069561880349664 8.840806405565937 11.019376939933167 6.408008264795382 10.283323546833035 11.224685675951008 7.1897694434556945 10.880873820241757 10.406987942507515 6.8659390648038965 9.688143957142993
2.42783305024631 9.527605526295776 2.9457417332808054 3.0762950318886992 0.9532973505214488 0.4804746262730697 11.663833250045228 10.309532681902907 5.456778456767135 8.895361424358267 3.179046251002515 2.6587447660443484 8.279575748350766 3.8112903529400244 2.2327374013375008 8.38045323897409 2.5943796603303713 3.2909002456883893 3.8574625678375214 11.521164017887317 11.116527286234206 3.298028010148847 10.853990071995272 10.63981530933529 6.666814591469099 3.829141414910266 6.095821154646502 10.596086537672017 11.218999978139976 10.595010409822748 9.959069492214804 11.728907334106959 11.137556090441704 12.488552313070382 10.180194774748307 0.16128117981922213 4.561313482898213 8.309340178628808 7.791659381491804 5.155601922575593 8.875193522430186 7.262356403582687 5.094971613514964 7.648749603108764 8.298515598497916 3.001080025388554 3.4753992003638 9.545038797453948 2.4761701811699854 2.872248531339492 10.123780354791288 3.495984893103951 2.9676314397677186 8.829211212447266 7.372197406174045 1.5774641634256155 4.074625167820183 6.8692785510634975 2.1401904063002917 4.696171292903186 6.816016552688457 1.0092294119954417 3.562135105014952 0.7960560812516622 5.035607337218182 1.0046147225712196 0.14894875466658933 5.494670817389072 1.655527743644416 5.349355576754724 3.8569055134214287 5.230475100229499 12.499224969269612 3.6558974915054545 5.749396609475072 11.794854980775744 3.1779448024979677 6.200040971766381 7.223641121664248 4.988903388559869 7.94452017739868 7.408405943220067 8.222300426114332 10.652893427785829 7.756539632622691 7.582156279730417 11.294392229227059 6.839868609959333 8.854126737239772 11.140607229402574 6.010680451277797 3.2239524331361644 5.578684751597954 0.5512547200014591 4.25352825767939 7.268091532002914 4.266631696785205 12.036806502274528 10.401940413336094 0.8050094649575874 4.660443848307426 8.145199030796055 1.5442941050128263 4.19216364961573 8.47224061435299 0.30475940691322895 4.4334568340773135 0.38959119828755523 9.018673015556956 12.396904201295504 12.239992100544319 9.541569867681007 0.34145536657333175 0.1655477102333862 8.46165658044723 0.3149281820724474 11.682317328397392 10.480130596831279 7.774846466387917 1.4247299707951238 11.284403230720308 6.884382321936191 8.122701628582496 11.004698612203608 7.19882687949285 2.0063074415234805 1.591542447759593 12.163029968830065 7.593727819191979 0.8301655359752256 12.542890439294693 8.136336801449126 1.9859369743531836 11.457811738384418 8.111294673380234 6.353433501434073 6.488481216353622 9.004366845325487 5.815635443679542 6.093010561910762 9.703419496211197 6.9155647089097405 7.145932030619325 9.391595626475702 7.852011163344387 4.442395025390073 7.414748767366939 8.51001903202618 4.981459115908449 6.953241843961824 0.32277125504447896 2.91791433313145 5.209091806848124 2.3515925572074488 0.4282381144367461 12.630170738034298 2.9046209891110575 12.615649342232974 11.982645620637156 1.8078441454628382 3.955896615226619 1.991697423428687 7.513676567533937 11.181601370295937 1.6769996593192598 7.971727221493752 11.688242361732195 0.9155847665519768 3.0875627234869367 9.47126706830459 8.546974528402872 12.079155298225206 9.428854970715717 12.32168919479536 0.0948638349950492 8.99332703962474 11.772585464459677 11.16619375155992 10.68944379367809 11.201857894517488 0.7743866644656584 8.083100123729364 10.173687366342133 0.12070736180345626 7.535718197952511 9.717105310388382 1.421223060039268 7.551632229794068 10.649057348511372 10.802082728677547 8.315075307049034 7.061044533803389 11.47939759700801 8.960625413334574 6.890244053632802 10.208642530951947 8.847834554403454 7.668233847344368 4.247084150911409 4.855071065093613 4.772019315785255 3.803934702582074 5.33144121314629 5.498734782561021 3.559235889985743 4.452827135364171 4.22615662932502 5.786883839612579 3.3861692111678696 12.144242042614577 5.221650851865485 4.130166025170147 11.663212893990941 6.17109946278484 2.707600970401201 11.5287602144704 12.455876007435494 10.060934488393928 6.026923651637954 0.09243305208846314 10.794727078319598 6.650710654712966 1.7891448415408193 10.138466334851913 2.467257310512503 4.309259019943931 8.16525298977539 1.2760344226813038 4.713224754232204 8.879586656120733 0.6522980609168451 3.7253014076195425 8.706418694681753 1.9723144618141908 2.468801870484396 9.952169613651838 9.08487386877851 1.7413900856885138 9.328977645975835 9.237405496166787 8.148364112705673 10.530683285091685 2.06692509025647 2.4881595114436155 3.711615593442357 2.6633024839941974 2.118857754229471 2.8987592574144463 3.1405841756368456 11.02668960131163 8.265940575484134 0.8264307393218772 10.206642199185069 1.6861783968571498 1.0606771854198884 9.66056428715498 2.2673507371010753 1.6819118664429857 10.717676324311874 2.2974190152424394 0.5352773865217111 5.856870130798036 9.90262975160251 12.252905634735557 5.237590204362318 10.551674108316266 11.87377946327396 6.453222203880485 10.368352564111234 0.2549169630333398 7.476341261328092 1.6790126514137762 10.800677432309678 6.899498753136522 1.2339616218731433 10.155760342406062 8.103495911554939 2.2404475408693285 10.299303137171023 10.47531967232866 11.218113755205282 4.637971766749144 9.803803234056618 10.569196001767908 4.41231408692107 10.043311312321178 11.934966826750683 5.110062724060019 7.02464609184279 7.753830322508058 4.513989178185615 7.752019895655757 7.2222738062792935 4.837460549348502 3.972203117224967 1.7002566811911275 6.799115015291101 4.605181518165509 5.1054163838167 10.773445067559331 3.9676453992751184 5.714314841588873 11.19976894045714 4.016906734116401 4.409364230581306 10.404447158208509 4.18918847262069 11.266121717610357 4.361824700298855 4.703476301950583 11.752772051705472 3.6894473597473976 9.638788523616812 5.484504574295381 11.517176014681201 2.740682406520521 6.815877289084434 12.04787162863055 3.2404868210320052 7.358752138221991 0.057652600000060734 7.992388876199732 8.891006271650634 3.590544880235677 8.642927151574831 6.415519748173125 12.407728781426396 9.214616906417541 7.043991072474371 0.20738123084917978 8.125119751161442 5.875265586856732 0.2674456232643689 11.440619013451377 6.218866878964784 8.79269882753792 1.8754756157075403 8.946990240467944 3.5401567762345696 12.192452570261867 5.618691386935517 8.598578023857273 7.047586605523697 11.59103636612403 7.608337837286771 7.791228930352096 11.266957299234496 8.199727061934942 6.670688651726469 10.727032306436703 7.286094517904816 2.8944420856897284 6.44484106698382 6.594258253773032 3.3338947183486307 7.232275465113684 6.9877792177595675 2.437872690063616 6.022289971722274 7.362904725687409 0.6086807001367912 11.042628953808462 1.351198787870895 1.1904227551244477 11.743770558754521 1.0947170083414404 1.889604541352072 1.1294885982004959 4.8920772027808574 0.7887523382370293 7.996288257112381 4.590748744657653 1.1835228765614823 7.253304269321181 5.1049479516940774 0.4670622751728756 8.66874155962967 5.1533990255664985 10.266854717433628 5.028416271119531 10.89874433019726 10.752403603024195 5.610462173970512 10.19339949647523 3.56984524454678 10.692710158208813 3.778006351578489 7.230642282848322 4.69622193421374 1.3146357616509963 6.873760307047515 4.115290140194945 0.5756385110331507 11.492007283335925 12.281201467007536 9.604048584576853 5.929641694063957 9.602567326243152 6.049648939749006 6.468743765565249 8.974880942255492 5.519535700871026 5.377550126405595 10.161229603945879 5.495746945238342 4.121012608287534 2.1153508434736152 1.2054948751780454 4.848171186530647 2.533103674560181 0.567985342975696 3.601293498400737 2.7783468812449668 1.6394997688541142 10.690532581854997 2.043465503142387 7.46270608846146 10.069784057413218 1.5702097956887726 6.840083835529187 10.115614443464475 2.4876530983380767 8.152554681154005 11.937916683090444 6.343710369807728 2.962086216262069 12.315270408682656 6.865645037031257 3.7186547356093462 11.511846016745405 5.5809889312281555 3.4143637608187403 1.1602823131155444 1.6396516927857756 4.410896130225561 0.6954887686554825 0.9023167431868613 3.950237448772223 12.631297507194123 11.60162040002979 1.9499689835322926 5.4474604556252215 0.01821821147175708 2.411577189558516 5.269494230011261 0.7404721787877272 1.8298224742432205 6.272306121926762 12.126745469818212 2.2011625442071585 5.507698294529058 6.364498627790095 2.7501523315940957 5.000348324745045 5.931122952397657 3.4144523831122098 0.4948339698806214 1.4774475750817093 9.978503095139853 8.79393953964649 9.253990525373181 3.1784638759311448 9.201374203707704 8.659183012262623 2.499351241076022 2.0897010196780768 6.18557021727561 12.451888004229376 9.159481179552008 6.166693668766653 5.849514480440085 9.692620236735584 5.582647434148795 5.237716807638703 9.742387984682406 6.948165052578799 6.1276618786572525 11.59583463029901 12.49171739498 2.5033645649374168 11.08125561343343 12.354504764034273 3.3270581414238576 11.167383822357937 0.538420945874343 2.025234631342992 8.835199547420261 9.74994620028257 8.601122749712605 9.354045094700004 10.247281850904555 9.251610383777148 8.468062706232294 9.129387580755369 9.223593078713218 11.957008457169257 3.4445713025641274 12.286569445926245 12.426187539123283 2.90203828227281 11.633714330593309 11.381077492567657 4.06083807102189 11.830898933562466 4.392386731218119 2.2956592297006924 7.4257505920847695 4.91380232500847 2.8357994480683395 6.887598045156362 6.676221214904481 7.1886353157438805 3.7684984455219985 8.743627397611213 0.4838764563095264 6.038558492737707 8.235657071772916 12.50718831535421 6.602930578205384 8.152415417549982 0.8201284282234473 5.293384268265052 1.0035170721649642 1.9633509498461545 10.633902936328125 1.2674633808700602 1.3245234775366408 11.359301729029491 5.035392111648328 6.986032092545459 2.1737022935593195 12.11494604445916 0.31799071532819306 9.084342135017694 11.575198296248304 0.7083060843566688 8.329343496297588 6.482530862363542 5.1330285583962025 1.7626214551382262 5.4527904535610165 0.2960187167116298 9.153670089165953 5.009539722610574 0.9279425123598866 8.591475580052093 6.00164097734393 12.39843610093976 8.546936547419957 9.215617072300981 3.1576502972935017 9.428120671712685 9.588425740270983 4.00336018354324 9.88467740701116 8.591842729553607 3.5112279275806677 8.745539107084623 3.102717135670184 0.4867921297646658 5.706338835176639 3.5242427443930135 12.378331500649871 5.3271620224044876 2.480867162723857 0.08941356394668824 6.389502774876071 10.2994930420856 4.601370759546329 4.198392530813857 10.851673232037433 3.901115377534963 4.5908753479340385 9.781926187897344 4.0607367884007814 3.5284079921860703