-29878.858750436513
-29917.505601362627
-29915.83113116906
-29916.699535953667
-29916.36507375961
-29915.848530944248
-29917.716662243816
-29917.094120747966
-29916.81270252083
-29917.548323371357
-29916.10669799627
-29916.008207752944
-29917.39147436967
-29915.83261201257
-29916.55226359036
-29916.031686551283
-29914.447490667913
-29918.673987028043
-29914.5350363566
-29916.53598955013
-29914.40973664154
-29913.031566444894
-29915.55834752219
-29914.365861822538
-29913.939960943168
-29914.313586577224
-29914.28995294611
-29912.164626721198
-29915.276566023076
-29912.78603908067
-29916.38439846809
-29915.168061854427
-29914.30518710331
-29914.99478928595
-29919.55707766047
-29914.19040159486
-29915.395989439785
-29917.38813213145
-29918.391371500013
-29916.5193999939
-29917.3453811426
-29914.748428437048
-29917.332476824085
-29914.597403623906
-29917.957607755223
-29914.901580228005
-29917.049183596537
-29914.298215002535
-29916.780798397762
-29917.997263449153
-29918.75441830042
-29916.00934668541
-29913.655163062154
-29915.592612368873
-29913.92966306706
-29914.740219306757
-29913.241398596045
-29912.625495453347
-29913.78130687434
-29912.851161092425
-29913.745876428035
-29914.74852748648
-29917.691617838504
-29911.655276963043
-29915.730883206386
-29917.192557248818
-29913.436096455775
-29913.56544155121
-29912.065669802636
-29915.20363366387
-29915.5007645604
-29916.373923445874
-29916.739842407842
-29915.560725661086
-29914.178032660326
-29914.27440368108
-29914.562836186644
-29914.304272936864
-29913.523542550793
-29915.340591960285
-29911.984566817253
-29913.443070597405
-29915.597498036783
-29917.197429583157
-29917.297908706532
-29916.637216850508
-29917.543385185465
-29913.725389657408
-29915.332324461586
-29910.956772031943
-29912.771581944544
-29910.462908408397
-29912.329654920646
-29912.63821459839
-29912.236636614492
-29915.01685418079
-29912.72501768841
-29914.978079455406
-29917.588088046883
-29916.951518674476
-29916.26466157624
