6.592417520311073 -43.6274276919862 44.23944460385826 -6.104673079967551 43.66437033064882 -44.445008415368136 0.556937454399415 0.504157591594222 0.4589462851649063 -0.7178442893215379 -0.4744078711356153 0.15943950634797704 0.7982306009900898 -0.3072450280014515 0.0038923930758707156 -0.13714572794678317 0.7984913108506442 -0.5109406759543266 1.0441879858256533 0.271499494970726 -0.09436488533583104 -0.4736542807990423 -0.3413594531866573 0.2310041059598409 -0.9834947817106546 -1.6333215653416389 0.26754642386024885 -0.1949407845783804 0.2940794371537709 1.2603128606808165 -0.5248554862632058 0.29484614011646637 -0.9858969633942438 0.3528620545096181 0.15613126791035045 -0.012463679684649502 -1.1540059724917608 0.9103530674196579 -0.6557953425095931 0.7235379972722055 -0.8572165926059947 -0.4819270623307958 1.9554519950953548 0.07761903333605988 0.40217272781928803 0.36824213651011417 0.4293140641207703 0.039744883998105746 -0.14172717666987852 -1.2954752675145624 0.5409788741876296 0.11031626645876486 1.1006869493536464 -0.6306419831724172 -3.5961292294711167 -0.8403648111559785 -0.5557064102057914 -1.2084719647501252 -0.5323772485615477 0.24266585856848533 4.171424874662745 0.39509345237500343 1.2472123187431166 0.06182603216786127 -0.2642286723409256 -0.16399370137756272 -0.17683301923407613 0.052793746762263914 0.27462184264979156 -0.20557461014314274 -0.13482607867467103 0.06035227583581218 -1.7318945752215464 -0.8745872226739584 -1.5041442003123127 1.5339281164429646 1.0151460900673486 0.7355172811212687 0.45425916410188216 0.6539122665542674 -0.6054518570600347 -0.26912405276001394 -1.6757655934384625 0.7501923666349403 -0.5511061924296187 0.4874698465258959 -0.5900062119289258 -0.014468111709187985 1.4033255889313379 -0.10847972747065834 2.8433508472765547 1.286031091382527 -1.2060970367600454 -1.6389489388307452 0.4530589731461939 0.5740142073760437 -0.21177431119595141 -0.14408384982751316 -0.07968182940235954 0.11331288719324356 -0.5932802546945073 0.45396040191454073 0.5587097158084894 0.125270573775752 -0.13511867021442536 -0.06538058228833901 -0.7147245127456336 0.5700899326209731 -0.11849108896007335 2.5869727813282997 -3.6541621131451323 0.7588266452711706 -0.27386131033468314 -1.3003017423689283 -0.7731520607549072 -0.3704445434780717 -0.5492848229501637 13.457164487693335 7.3246815846023665 -0.9449647439562565 -0.6385900343749003 -0.40145179049286345 1.3082389949381341 -12.788467092410093 -6.26205030446986 -0.21453207644674663 0.4963892605027128 0.2587357675471544 -0.32693864977563697 0.5096430401888254 -0.03422755372430234 0.3013083508020424 -1.2974370192266234 -0.19631452499745547 0.6412932922386763 0.7284061239977843 1.5994069148720649 -0.3936837165116704 -0.506990690167643 -0.8959412628697021 0.9651733576936475 0.19539304162445056 -1.1041070307787888 -0.06902692079167466 -1.0318261218261906 -1.447635980812939 -0.5320478902465868 -0.3548022089551245 0.744521541502408 -0.26300636989805026 0.165479799004786 -0.22473395668041296 0.5641622542826285 -0.2696616704310388 0.951716203747477 -0.5170902404954901 -0.22785399036663337 -1.0071651287444008 0.42938219835454433 0.6116638994080176 -0.0379422835717282 -0.809761998668457 10.22291519995973 12.099772428069317 7.514596633831381 0.14490223196375046 0.1593906553879126 0.7675118317499943 26.281134143885414 -32.133654765950276 -60.40806697463988 -1.222899453029365 0.569645903105019 -1.4626530230470616 0.7975520868658263 0.2934024656914043 0.6086063435286163 0.800336591589499 -0.4574234207624768 0.5847542195013672 -0.12133730015961683 -1.9249525409549169 -0.510657854606585 -0.33735470290263836 0.029213388339162594 0.5889602871629147 0.37841162084394825 1.6523060768639415 0.34142733031011524 -1.5911068796468018 -2.138471859866433 1.3011363224550818 -0.10785160696835619 0.2978409610787322 -1.5729338082822006 1.4533276318810775 1.542194213106499 0.2513672429972252 1.9599241719340956 1.6291921165542973 1.67576842165194 0.5708226970219396 -0.04288342962708744 -0.23033587624822266 -1.1371076540745255 -1.3100886465523631 0.054245134496809795 -0.7298726812409817 -0.20080675644085416 0.04575869429235345 0.6830323238486753 -0.1505756281994439 0.12151573471901007 -0.3582171481739444 -0.378483097511832 -0.3581461857266929 2.420380208875309 -1.4477604222059453 4.555888615238045 -1.1297170180374092 -1.1779205743258294 0.6477645017853166 -0.2717848874216287 -0.5853563718617403 0.8733554071493862 4.96833881372394 0.3523586325106383 0.95204607628307 -3.5346132723445063 -0.007289848793193897 -0.09493052803131394 -0.6843896092075181 -0.12769178162273492 -0.28303552063478354 -26.175601157747902 32.83505607922445 61.12237239757023 -0.5495061949323504 -0.2891056380882634 -0.13330038605876396 -10.053223676866441 -11.913969858346778 -7.638725637803522 0.3139208973597303 0.26575796450125844 0.23745114713676527 0.2830182942436029 0.6845415614043502 0.13358783539219574 -0.10444746638281367 0.22144217330301863 -0.5824474257450615 -2.6138078992432727 0.3837682571701713 2.508686546721886 0.2906521566397769 0.3266110912328891 0.14760086184183613 0.14242625961943214 -0.20804826849461588 -0.010596030348291428 -0.35930009682547803 1.0247584163461319 1.4899116016526985 0.7161635591850053 -0.41779732173042244 -0.7198163254462442 -0.38089787760091176 -0.4632942777209569 -0.5666479968189596 -0.930025606147921 -2.3649806490590817 -0.6006986586457654 0.37211216098848177 0.8268315525562341 -0.19412214533182698 0.0768019367514032 1.2809629328310004 0.9588327601876001 0.7991937362343075 -1.0831386560572378 0.09311224387565255 -0.8420540259329433 0.3089188161594486 -1.2758333249139189 0.24452785147788852 0.2623432823927546 0.845976758026117 4.883368482229132 -5.607120395284356 -1.2830586390177645 -6.151603168860187 5.17815343009036 0.9363651752127036 0.10401474972076927 0.6887291171231364 -0.2790649660228097 0.2141242994853667 0.5367712638641853 -0.35135770204994976 -1.4863189992054338 -0.7048990420147795 -0.013383620395757596 0.8282844829526768 -0.25118623733467066 -0.06592694171011226 0.5539089519857364 -1.481432103426778 -2.474605802988093 -0.3772805925632986 -0.9735279003059298 0.7274129068465794 -0.20454565465799612 0.029793686322664818 0.21373529157706414 -0.13326439061450598 0.6505430929717184 -0.5853352888158176 0.8000650830956673 0.08611472951189686 0.04628834154357834 -0.9253405419674257 -0.8617628172157803 -0.22844071610803882 -1.1141567017053071 -1.5062645890894253 -0.3915862105526934 0.2182825446281144 0.37341905272536335 0.6010591273089777 0.6596591963403736 0.6932234054490641 0.27875411965061025 -1.358175988977893 -2.1348692301168395 0.06079964778587593 0.09484413896509472 1.688263211684841 -0.9344671868590423 0.8730936688475673 0.8984079792426399 0.4377686226460267 -0.19897433121780572 -0.7817104918478794 0.3551799040095173 -0.025886123738142513 -0.71216189422478 -0.5337903268589904 0.17474374080521518 1.54435188287945 0.15951561100155107 -0.6045956797073264 1.6177532785897364 -2.3018132723719775 -0.12388886293687695 0.32507228599085947 0.5006398082489507 0.5646564203102276 -1.7737235954421906 1.8117934057307186 -0.047350207149189416 -0.31855145415320624 -0.5096628376831674 0.6816665538494001 0.24817444709154035 -0.15799351793006983 1.1722788026590198 -1.7654852666927983 -0.7711504569438461 0.0508880450991188 -2.344624711110549 0.29793763455759653 -0.6258628166162189 2.459634526390241 -0.23426066522392555 0.8077801923517378 -0.18467308410378516 0.2527630949034873 -0.13060149907036217 -0.13448463617485226 -1.6314616293147646 0.13937667415983093 0.44859990893357576 1.43987562014123 0.2984991634880214 0.3620432067882539 0.20124667219175016 -0.6779037443728583 0.5405924373824883 0.7230523158850386 0.6277872873324414 0.05730089060399809 0.41735663464857803 0.40174129670882425 -0.030523108289521626 -0.2618105498177362 -2.990112501046547 0.7063925958411705 -0.32175042070647814 -1.0564310648590645 -0.47847561344708567 0.1757492992515941 2.959203984393149 -0.01923416563926365 1.0139914076376149 -1.8456170391483826 -0.8691105158301032 1.093996167597032 1.8512117596273407 1.2117094978508165 -1.619302368244411 -0.4264526834125752 -0.3006835727338499 0.12373665362972884 1.3480003339964721 -0.9313399540839703 -0.4762438959030896 -1.006535722690518 1.1043165756864337 0.3996561320450214 -0.35074012307060887 -0.07527444436328327 -0.273856939459309 -1.3663065885048276 -1.4872620798449934 0.37390653388474315 1.5225239883710813 1.4052004373565476 -0.8262774798249769 -0.37272665464402904 0.054559837523751195 0.5786429643973067 -1.096785814527027 1.6526500904669217 0.7268169251337935 -0.17979467296556131 -0.11149640280979507 0.14697428400143075 -1.073291588059829 0.1579500662866441 0.4770072564316753 2.2789769912037525 2.9927805347970136 1.0138106590853766 -2.510198098270406 0.5435088396983349 0.1788027413659372 -0.09584224121230592 -0.4428511793752567 -0.11869600588202782 0.059404310100246084 2.0663873831953574 -1.4286969778165912 -0.501394427026788 -1.4081417793730586 0.6442863134287291 0.507384583171952 0.1171381744766047 0.42909860567585456 1.888539806653838 0.9921344596635236 -0.2465374257087496 -1.668872465863055 -0.6101117244295492 1.3618398109827257 0.14335159964717892 0.26945958172256174 0.3429103426135449 4.68800809361483 -1.1732432234548182 2.2311858398624023 0.23004251337751996 -0.17247062850032233 -1.1762822673914581 -4.499574256917032 1.3029036987681497 -1.4040940916662463 -0.07813788195400737 1.443408572995153 -1.245307902631552 0.27503707581033926 0.12615503326323435 -0.24649397406532386 0.21603900000957632 -1.4465054667529218 1.8103690145793663 0.71061049057726 0.7155161554089935 -0.15496938639176536 0.23380043775805542 -0.3807022166503379 -0.18125788777464913 -0.43403769484868476 0.11888523907469849 0.6651199623446287 -0.887865170729787 0.5874258527962593 -1.4450833895944146 0.06930511415372581 -0.02197161917508474 -0.5062586970976249 -0.13089640460296167 -1.1856148576462937 -0.05421556681045502 0.31630251021802946 -0.47226254265783824 1.2265157096257135 0.16388880036858225 -0.08495567620678916 -0.7259826021579562 1.3263390469729543 0.024663821295267202 0.6756098061323591 -1.264316839633887 0.7766911842564171 -1.3366931365137689 0.6077977315843919 -0.8519617719649585 1.0804749931821456 0.2515762736842377 0.1994456144272694 -0.033747014543458013 -0.1768204208285858 -0.5537099486010528 -3.1116169229116477 1.5968111291204306 -0.5145083387009269 -0.7344225053951933 0.17033789842803568 0.04970970852030149 0.42475472688486204 -0.3559453214206322 0.5335686977664875 1.05311074223658 -0.27038826418441825 -1.0253572262723956 -0.7171218093332166 0.8655343684430706 -0.5946241703169114 -1.1666732835467841 0.22761513488294996 -0.4815120862805643 -0.2582984228994197 -0.10525247878261228 0.5609167507621372 -1.1273994256478264 0.31724764774011815 -0.18129568299112003 0.3874804159144359 -3.813134964269336 -0.16076542424825216 -0.38995201738338003 0.0023895832780991104 -0.2292899514822116 0.1080521530149365 2.586565775697868 0.5493267319316927 0.36304182325609735 1.0396739000053836 -0.0714617554854124 -0.326088900180832 -1.4870818455133872 1.4736473172750362 -0.30625078240898224 0.47651694705881803 -1.074925009898194 0.6240422184677124 -1.0360026218013836 0.5208962445051416 0.43382300773471744 0.7997377816632356 -0.7146041851176855 -0.6701688376224458 -0.3499549081651521 -0.48730015371725116 -0.14787417010788081
-0.6529894976296818 0.28641060775460353 -0.15601762515062162 -1.3658599878857123 -0.36567257601072506 -0.6731068372048472 0.9041852480460492 0.8179874719020429 0.8867670525696019 0.033679394530316195 -0.6079262867424563 0.9310093102174288 -0.666166144220956 0.12217959355525411 -0.3264920491565215 -0.1713087469817372 0.25917182664330846 -0.6039163942521147 -0.13989835099125583 -0.7457824104927027 -0.8183520543303132 0.47385842639004844 0.5719910062984278 0.17299641909680527 -0.9435910035371814 -1.3507681265495963 -0.7246111757317263 0.8633278477100552 -0.09153152965209398 -1.1398587344571016 0.0965400386102789 -0.07928459396394087 0.6091370192211057 0.3166485807035386 -0.6142316601351938 0.11640386741374147 -0.6918458083752471 -0.5190885018724415 0.9555582032013866 0.15650279231715628 -0.3061155423826986 -0.3561839197939995 0.0070502219785620514 0.49563207062171405 -0.46326033915922793 0.5288486665829989 -0.27175840505906745 -0.4110155229218986 0.0028513534058660574 -0.11108374075240869 -0.6968954549840127 -0.6376533814932438 0.2920032713510326 0.7985093085727732 1.8663249611196957 0.3433762265063699 0.5582476885704063 -0.9850096756932843 0.40878663359137984 0.0107999188289814 -1.2054010391342853 -0.5224728449636421 -0.5742327511447529 -0.002243544618538072 1.1018501164238121 1.0097254332724093 1.2929298753848895 -0.8734644219234248 -1.303602267497071 -0.31032469536803975 0.22956608796173364 -0.4550176395344615 0.998649377963906 -0.998673289223306 -1.1261046180958025 -0.20395275826900358 -0.4245120147464367 0.6543460116575762 0.8649535562389361 0.30949782859137015 -0.533521646578636 0.28226007592133967 0.5661471459231411 -0.19999017407682976 0.12294809629016244 -0.061606202847571324 0.26300045636077934 0.07500602119324501 -0.1778696880287066 0.062003695396306124 2.089351962411331 0.9634175513448053 1.5018579753812973 0.26602561634034827 0.26774388458303566 0.6580671692629054 0.3327560277883624 0.10404174630396275 -0.29952477653905835 -1.696197636040569 0.7653942711863593 -1.587262566200047 1.4695356090995078 -1.063528080915162 0.9969149117713024 -0.3428836031406675 0.20578415505078754 0.47126778284473675 -0.4339837016822977 -0.00943826259476439 0.6984466015212164 -0.30854472064948146 0.2666231407150312 -0.33179546364730594 -0.04869515121285807 0.44734701036308117 0.19985776226402352 -1.8635273437699005 -0.2581269303185619 -0.03360071877358085 0.007462112705000052 0.42116623820265536 -0.7269868750527545 0.5588801799480827 -0.12879015689323625 0.16767115022914997 -1.3533418008140434 0.9014192552651379 -0.33133677884333257 0.7576128274687275 -0.5613011306847494 -0.22678723966501585 0.13851972547617433 -0.5758481752609889 0.5807767229108578 -1.1041718225784531 -1.089451485649143 -1.6755465354491208 -0.028479852607247724 -0.06649258440559518 0.3036531968851351 0.41985394714913493 0.77151015427611 0.9973370869103855 -1.373187889005693 -1.0027366606594021 0.9125243640393638 -0.0068923562444590985 1.0433225525015646 -0.06430174740186345 -0.6843389584752407 1.129768440100635 1.0622839240954158 0.9481845364451349 0.9469424365079177 0.9657801380397109 -0.10266774877457158 -0.45253086855686575 -0.0017352375235518502 0.003448363559916642 0.5314794193376267 0.26841211429465384 0.3623874775015501 0.4870738966390579 -1.8649018555199237 -0.2384739319743248 -0.9745987647726053 1.278690848967372 0.988771970949194 -0.6691406534682476 -0.4103076982215966 -0.3132089588943703 0.17479207754464735 -0.11501161505190514 -0.21553326401775139 0.2442398879238245 0.05704815116324368 -0.4269108539959164 -0.0032604159188266424 -0.18532203054169372 -0.16011133560402102 1.0624237921073896 0.014239797748465798 0.06063869672797944 -0.47508689948051086 0.20052830596848692 0.16477557384890978 -0.48822652218626245 0.11729963975513347 -1.7768166325452173 -0.523596417045124 1.3076535547483092 1.2367435580013089 0.627418591139113 -0.6936934031069473 0.1640824044366271 -0.851794650259475 -0.6951278215606287 -0.3126317462346616 0.11080734716257047 -0.3922215301438471 -0.23476717254669893 0.2902981157344678 0.1262794746562406 -0.2997230085927935 -0.019065501271883296 -0.27325273021640684 -0.33232948177390503 -0.06012833275046418 -0.23064106619346728 1.0714933585088258 -0.9427736498422087 0.24755275434714138 -0.0014393035496878437 0.8309676862117947 0.29367037464081036 -0.10380494770280833 0.48473393565197165 0.5147029712102361 -0.5146703182000878 -0.919260654321933 -1.4497316869997032 0.40866861995627685 -0.847779872673127 0.23027905486835823 -1.0922149073268932 2.7710437130717116 0.10104692534169693 -0.3358629488484603 -1.278630685153398 1.2670877175108048 1.0424542909639982 -1.1714316241673761 -1.7870763626000126 -0.501874194876684 0.8462539229469038 0.4356356354634239 -0.14247022548349014 -0.1994291593670372 0.36638168626260775 -0.19843851331899373 0.20769319914804232 0.08808316609217734 -0.6146373802140447 -1.5915663357817236 0.9956668982968143 0.38482215235598244 1.3500132506614426 -0.7168970949169202 1.061662745571649 0.6507996890672146 -0.5423407875321627 -0.5953952441549811 -0.4901813319197881 0.6098888097854658 0.27000234159990916 -0.3616469997910997 -0.46848559211390933 0.7661203507191063 0.5704599143658821 -0.5737411562203152 0.7365902024704732 0.1460898245139484 1.0928625682132211 -0.09086561393332093 0.3115014892849603 -0.010119604932505152 -0.9180542927186577 -0.48395334873220514 -0.7033514950220016 -0.600116046669418 -0.7049406938859925 -0.02395882480844261 -0.08582985128162637 -0.03794434045425723 -0.14101729508704747 0.34355800349987287 0.18915965912022906 -0.1817422836102354 0.526047706799094 -0.12001292492123848 0.04635416178450726 -0.4637035973442337 -0.27352295315865793 -0.455760431237757 -0.7215533627420089 0.2821996549970495 0.6259034400461673 0.05210366267377478 -0.16739269975678267 -1.0200607537601465 0.7732374213798618 -0.40456668197276136 0.7280245722886495 -0.47124567135754974 -0.5822255395422424 -0.4597171018926599 0.010354860871762812 0.33494840745399085 0.34617127275300386 -0.00034864158867036735 0.29875216003909194 0.22157047135076682 -0.3704766822675878 -0.1638458629457888 -0.8167122047340452 -0.5093537910831808 -1.7239712066094115 -1.0327638031491118 -0.03561543521076447 0.3593018965976909 -0.10375532541179551 0.30473460287477194 0.5998401673002122 -0.5904980639636798 -0.10900114719176712 -0.45667548685285864 -0.26151847249861415 -0.6977878848912951 -0.7547491327676873 0.04212032620881778 0.12058396693336007 -0.7202793811255919 -0.151273682707733 1.3883381143835702 2.1991570935616322 -3.565713079073104 0.1756467122354588 -0.2730159316152524 1.037183272373046 -1.822247511184507 -1.773676801364655 2.7639572385385756 0.2779935873355019 -0.4083701148792515 1.6370296103208453 0.37688849933120255 0.4418047403886133 -0.5110126668428425 0.060492143847786145 0.17771747872155846 -0.4259834570856405 0.9443474220872318 -1.4132377058387273 0.575376634941209 -1.098439033859734 0.07181219684629568 -0.7998236565088226 0.29589257910310973 0.7275777145592179 -0.3148030428543675 -0.6291224612040972 -0.30085223710123027 1.014597159542414 0.3780015298897232 -0.15788141783223777 -0.15515039205431988 0.2714403595980164 0.2773857785481739 -0.9010387319972675 -0.493440205176718 0.47053373289218964 1.5300701761494553 1.1720880268044522 0.803863630906151 -0.9786806481514629 0.10242297975361717 0.5412444691441904 -0.11602617235934855 1.0330381398564208 -2.568513289071531 -1.5365146462232182 -0.14256869873456737 1.1236386730538133 -0.054143061701306755 -0.5218136141130884 1.372038091671966 1.7220734753660663 1.2369585022255922 0.3510172879913955 -1.006275784160912 -1.2576455982612986 -0.45013434330023117 1.3109152562187165 0.8320624619378703 0.7015316682044435 1.2472107760812197 0.0970257199974458 -0.48090376327260403 -0.553996112382904 -0.33913750583467395 0.44623655090772185 0.5912999910396848 1.3752100616420444 1.49081405886231 -0.9865237983449656 0.7185515998012076 0.038495070751404674 0.5769990010359805 -0.606988091198903 0.0845890368959898 -0.22746498245833086 -0.23722077629351404 0.13568534135117277 -0.7065036674977381 2.3859297405069233 -1.1150694433275634 -2.3502608263504037 -1.804690733247666 -0.14760163317278452 1.1254970664187907 -0.5196708567384728 1.2322860364505874 0.6564882548115597 -0.4864666020723622 -0.18478981218730756 -0.8464233586452325 0.2811388178327029 0.48669697291561337 0.8680075125739115 0.48660287053991036 -0.3618819986200413 -0.25228204150201067 0.5198608612620919 -0.3898846544805543 1.273153978309543 0.025457520841156156 -0.024725013550505805 -0.9393381417980984 -0.32271072773721843 0.1639232531509435 -0.15532085619391317 0.0042934851690313155 -1.1296511977964805 -0.2880139476859814 0.14879951013562762 0.9694185061232466 0.23135120488661445 0.2877627509071238 -1.0285685341208415 -0.8740123240070947 1.5731528662715424 -2.0895105994763825 1.2591643488986701 -0.36064529799946277 0.9212766563106972 -0.7720310597765865 -1.0398016838324997 0.8429140599403935 -0.34329549386710556 1.860947755968182 -0.23220121159173557 -0.6396079341164532 -1.2437827242362773 -0.44978904414567056 0.8996469938560635 -0.4647641773982641 -0.6128828594167832 -0.3064006777232852 0.5127054811642332 1.0705374223534596 -0.8853524316102622 -0.19045703777541395 0.09434997293749559 0.6879220478408088 0.7661599457077902 0.8738218052628434 0.45372566019591537 0.7984650855983991 1.4113168346669307 0.49661320358806094 -0.2647999714633633 0.4161124778288317 0.19084810256624551 -0.8396906679070892 -1.4733840363113204 -0.4129939868045081 -0.25250855569051994 -0.07315585535838369 1.7515632572950677 0.3385458949972621 -0.5295562341729848 -0.5327022360011341 -0.44962886441872246 0.9146457812577409 -0.8004576905483957 0.8559269272602937 0.4874029978437025 -0.08484100500579582 0.7129967314212495 0.4569842763425291 0.027985943689964703 -0.9472460837912654 -1.0393262868579778 0.5234472930617695 0.19305179508578366 -0.6623760810509044 0.9461502796239254 0.23425680856918366 -0.060888865065572555 -0.4300586555962787 -0.6375541369112181 0.5380336755163766 -0.9015771209992409 -1.7053515346256953 -1.29762188154392 2.412642473911419 1.8721317976094596 1.353524863359127 -1.4964344903728808 -0.5637722179330613 0.5437844619572247 0.44583931546930317 -0.17601797953194848 -0.44439101305855083 -0.5256191039021076 -0.056255737168935366 0.6779654508487292 -0.6907083523366944 0.4953153107122437 -0.5155048982862412 0.7922800398336097 0.6515841326417231 0.0050198218120945815 1.5217086915586375 -0.0011420840242431945 0.5297814628099133 -0.698421661820552 -0.5631047595523915 0.30720928966750966 -0.03791811520201212 -1.4425125435434447 -1.2173224731622196 0.0826969620795995 0.3110155507874772 -0.0025567049835826935 1.177693545916688 -0.10307141197089345 0.1043505357936332 0.010301381926008065 0.4186254740586726 -0.30932067958355763 0.6738056630440847 -0.18315356213546521 0.6703745258753486 -0.5379323740518219 -0.14960992185206493 0.18103111647582368 0.09133612581183626 -0.4016957881828695 0.7868352146689547 -0.25177553417923737 -0.30740443639745124 -1.0923180085636608 -0.06165633935921639 0.3534222978884623 0.10147784223152845 0.16825273376423283 -1.6545239104508667 1.071057813633304 1.1773667587048884 0.6802871570033704 -0.9004111257155976 -1.0036787128576972 0.4645546324906193 0.4111278801300468 -0.06844739413912083 0.41941197451570994 -0.866884968933694 -0.20117545263418257 0.29904552290979464 0.6546931105843499 0.2730984640267297 -0.32679466799860496 0.3354562003283449 0.027053918793998565