20.833559581615003 0.0 0.0 0.0 20.833559581615003 0.0 0.0 0.0 20.833559581615003
20.758202101259414 0.0 0.0 0.0 20.758202101259414 0.0 0.0 0.0 20.758202101259414
20.84603070088427 0.0 0.0 0.0 20.84603070088427 0.0 0.0 0.0 20.84603070088427
20.79959328414241 0.0 0.0 0.0 20.79959328414241 0.0 0.0 0.0 20.79959328414241
20.813896414906996 0.0 0.0 0.0 20.813896414906996 0.0 0.0 0.0 20.813896414906996
20.806004266021613 0.0 0.0 0.0 20.806004266021613 0.0 0.0 0.0 20.806004266021613
20.868433947177124 0.0 0.0 0.0 20.868433947177124 0.0 0.0 0.0 20.868433947177124
20.953702916645174 0.0 0.0 0.0 20.953702916645174 0.0 0.0 0.0 20.953702916645174
20.90448308614179 0.0 0.0 0.0 20.90448308614179 0.0 0.0 0.0 20.90448308614179
20.893095192618024 0.0 0.0 0.0 20.893095192618024 0.0 0.0 0.0 20.893095192618024
20.858101233006813 0.0 0.0 0.0 20.858101233006813 0.0 0.0 0.0 20.858101233006813
