8.18144301549812 0.4366714088306504 13.120309150594517 8.52613425877594 1.2660637491985764 12.713950570955117 7.232932714866352 0.5141764171861746 12.88403575137942 5.318453590673422 1.4663784245758047 9.808106514071037 0.9513374146669931 14.856598839685892 2.4749643776171175 4.093856958466093 17.665650178753786 7.483018764084058 9.98294174607995 15.178352333864355 10.461467776110064 16.310822965601783 0.5022658711733653 1.816811396874318 12.760117738987976 3.2990566604274805 15.64487823357546 14.391302119990105 0.07857376996206099 8.435674943072566 15.239915502428028 20.44665954662483 8.529155124915274 14.65597166091494 10.923160289998236 0.9637542161776356 3.308806766311676 8.15408855176746 19.043769311518037 5.501872249229962 16.815765949181387 13.710419725743762 2.8974897994918516 7.792355456751878 19.85406977788537 1.797163266832897 19.472232297873532 17.81196426769547 13.474062992290339 0.5568852143284854 5.3289745382621385 1.1975880055657242 19.869840782488655 18.44286695250552 16.02617404103818 20.510326904706247 2.155565075671378 9.328559639621423 14.791348131076274 11.044265771846163 10.920681096408023 15.068101136558449 10.772241984389018 9.473019541760342 8.566155526732222 10.11040146360027 9.690855240745709 9.333101355610216 10.619469491977034 8.729219797577523 8.107608880340875 10.567864764893374 16.205050983605926 0.810598386269351 15.823255170713246 16.313031322917432 0.34148495845820964 16.656305884143705 20.096509910736625 2.6412995173167317 2.619486780434781 2.5354650346421277 3.690831748359751 16.414178254686174 6.845699342922874 8.395632841556704 1.219800746791642 1.9009289770410465 4.046627278894571 15.800963261960918 10.664178310839178 3.0529081539706993 2.9462194953532483 17.728671696488174 11.41562397138845 3.2362851454080745 11.008661218521185 3.5294133287213976 2.15121086171882 19.26760507566291 6.825428289449962 1.3660523350545792 18.620848052011254 6.544404404253558 2.056649418133828 16.854870540516078 6.993950952905646 3.9166467006648755 20.598827865808946 16.256655710689582 12.103777277928776 0.487994882859959 15.59844022926804 12.208736751100952 0.12056172594284786 17.041601735046093 11.716668907342786 6.428007306871074 11.570500653318177 8.085712809220599 7.065180893115188 10.83999272014843 7.884502290781361 8.001524394951293 5.753770818131268 13.894838395160217 4.008481031300635 18.624473091378455 7.894064894629322 3.869521188891263 18.49384667280173 8.867262963365304 7.479622893872255 9.271184016533656 17.104331582946337 12.420447383569325 13.758232744983568 17.344021685932816 13.053350090099208 13.074641987991617 17.774193024174004 1.5613627894203037 13.698107092031028 0.31825137281279264 19.48060738882534 5.735020614507815 5.071534242512122 19.093249015524375 5.411308765728681 5.935772794636257 1.8652890066647778 5.830021646199978 5.77625022891983 15.701608016316198 13.533521971336269 8.842096023390713 16.64759745623859 13.838254447336551 8.737449053612261 0.033085775971562786 12.765326128883379 8.580822352677679 0.331349431721754 3.6471646074766855 14.771452081675832 0.026850291588785418 2.940469432908723 15.375208638351037 20.368262861919213 4.006335174663728 14.333113988078653 14.101173969256534 8.418820593371041 16.098112322273494 16.188529970857704 20.569890051550082 3.163034349919116 14.912328611566712 7.976753292608752 15.896839303155513 2.2741913639290936 10.690699432186577 6.7132395711029655 1.8849204698585338 9.86748215887864 7.117327292747969 3.151117553838432 10.397508748194507 6.447195015245742 20.342095911084705 20.465805587880336 19.363981122287463 7.195078137106557 14.46684460703304 7.725313062018241 19.710714054404278 0.2741592273142626 18.991039572216973 12.830139332741783 15.138997739814684 2.3567339269914522 5.652332216528385 8.64740640910052 3.7696034371378366 16.487970722724256 12.394801271724356 10.161735354409371 8.411278844802496 11.910129341617663 0.30493247817226615 8.552301209610448 12.835326889077605 0.0906780680789793 7.406142929227899 11.817753338432784 0.10831575962077455 4.896615676264882 5.995210940122604 5.554414486494794 4.015960279190434 5.627623614864589 5.7193746112620225 5.277744815250948 5.351495616169864 4.88471971374378 13.51625095044311 9.293788428679708 8.885367326641727 12.962161599810477 10.031379772107206 8.599822559016113 12.898285906133244 8.642823025992566 9.202308268556836 9.665667467211536 10.03233811584796 19.651234241798768 6.041023937642576 6.676280836405181 6.655676445978964 9.148745186872505 10.695991156320305 20.207802786021617 4.168816105840744 19.396398140996453 12.742159210628623 4.856240237795713 20.073863831471414 12.863056356880735 4.412818755660618 18.580430946422922 13.254185604465976 2.375692466210722 0.04679634153222362 14.008443795558765 1.861126461460371 17.05239351890937 19.551691494117815 1.5916297847804741 20.583931870708092 14.504907520388649 17.8079642242558 9.452727654727848 19.52633705210699 17.74838024385238 9.9546706057277 18.70734899139412 17.9431531923809 11.579667419534088 16.7145565167339 20.637724121547823 9.94242047269371 19.566420820742014 20.159718930507246 19.753443685106173 4.26035876664236 19.674234491576872 9.82285667425482 19.418898385344598 5.663207334629988 0.9843752734515181 12.402363853852483 5.553789479707346 1.8806850071955914 12.794034773986844 5.473913612271434 1.059336504182127 11.426519923049636 11.332310566621572 5.800146321759943 7.497664756469933 11.387748668668252 6.416778018256584 8.293173395534321 9.19653737255273 18.224343746053957 13.821629266790422 0.9945316337475554 15.992736177909684 16.453887019248732 15.344083300336104 17.433230988061293 19.055936110313702 0.4964553914060528 16.686952050288262 15.988486131755035 0.709034783308978 9.521082563715128 3.6823941567291962 15.28354097619193 4.777614383934697 1.9623108936363587 0.7733646485850886 10.385362782958426 4.079210966080217 1.1342644012174055 0.4296192489122738 11.578604907995425 1.770627561993794 0.7441684981874134 10.999931957056486 1.5907110248029248 0.30966794626516725 12.43086416336013 2.1782528220557564 17.098164849310177 18.626681448694107 13.532751129631748 1.9951404168250677 15.151539542682816 3.206951493517161 16.922558775596745 18.67803617306279 13.873733999304042 5.721353799422275 1.3574022411162927 13.598918514862959 6.604217553812374 1.7669379385918897 14.19542499280376 5.986794182051631 0.4694759317478614 6.2372969024609715 11.589625861014099 15.308020408700328 6.266297217398579 10.80386732783391 15.9194020481824 5.4551842422075625 12.058610120755834 15.658961719852632 1.3950463999243128 1.0202152459997704 5.290536620834058 0.3873771235045912 0.9968670757766543 5.266078021885243 1.6631263945526604 0.8257193838136871 6.213838314372072 9.347809848674835 7.6794375638195245 0.12057214272263866 9.517040853156296 7.4965814113716895 1.0933222899276156 9.49272808912455 6.833574211246374 20.496805924537778 8.621197791146848 13.19697664985486 15.22745703379822 14.892953401155811 4.39954777820713 19.30437630832446 7.872939665213564 12.552844654710487 15.411063194390994 7.4265389840583005 18.112613366017754 0.8523988402139033 8.052274946092107 18.561659909239886 0.20410221650916585 6.660530665361479 18.78732902662794 0.9156557771715609 16.714660684531808 11.717793919560194 10.797533925721096 8.415174720444258 19.49202417947607 13.077683687690532 15.899193495388234 11.19049652654952 10.923326958474888 0.7097285408430457 12.243195458648945 5.105722113785552 20.679599576306867 12.036089042848108 5.457142596808234 1.272032564018709 11.668210047755952 5.689561787500731 6.965575644755486 1.2223507744844317 6.104087122496124 14.61338786513012 6.688051797568793 19.215937847900506 7.4814979142346 0.7986003393062989 5.398558627264733 8.313069444934763 14.14371609792219 12.505406639543152 7.72183385756811 13.379686967385624 12.371988523982488 8.693365241537563 13.876879866800865 13.38337450743157 5.383350128770154 3.146638338528385 14.057840165326773 5.0086168925756445 2.607465816556189 14.796285684697118 4.733718073896235 3.6967693128405106 13.63608558515656 19.943216579335104 3.6230810126003385 9.113807307454136 0.021771069762787677 3.7915828424964406 9.057577530143357 19.93825819215468 2.806072140047725 9.562749682878357 10.102963882829634 5.55243529833454 19.577400106641527 2.2162324011730408 9.060556729163528 2.915844165483254 10.510259972650209 5.888688949981807 18.717994940340326 6.24683867274935 5.878772175620957 9.71745969633143 9.167203720661815 13.968839198794115 6.516216598139633 6.511383212316698 4.885532222567463 9.71979305500457 6.816949030700245 16.566596576585273 12.627678800727649 13.667377591648146 15.024704831949943 1.7954799152187022 7.4551226278042755 17.301312888790505 12.581657467611862 12.991161914748087 6.541404371673805 12.321112971484185 12.56059473887485 7.074472660688588 13.017183030665523 13.889525837466906 6.891970678753641 12.182736468743096 7.81406402583592 11.476020460615553 2.870281170678262 8.111879760055107 11.804315692502643 2.000238388854689 19.110790872692096 1.021798596527973 14.771764585069556 12.541782034572648 2.4402556673541467 4.865615339607439 11.996921950834672 2.6143408912181214 4.072710895490753 13.1156841003674 3.2206183086027003 5.018637834734401 17.424460059477433 6.28308906642136 3.502183866348227 18.20192683594414 6.045919824144255 4.046898115169133 20.276616033319687 17.893840156851216 5.4755177963592185 10.207798354644321 17.35618848472848 14.725618250596279 10.496384821968851 18.15365547839354 15.228707047373119 9.859023733688504 16.662410117101118 15.35375007198197 0.4098190338859069 19.860424013557765 15.493647424572517 1.706116444749323 7.88358561415977 10.86709718116411 19.788548233001194 10.119234892862876 11.786315497024127 9.701667858168566 18.930580582311123 5.713103709827956 9.195287358977833 18.75547451402765 6.518424955455284 14.749993515306768 15.78471308548726 0.31559926067805305 11.8151283099255 16.955100795663228 19.76411046761196 11.492187302850885 17.824901908195653 19.413773329687523 11.404644685488941 16.325343956630167 19.15693720716537 15.85656803248425 8.34721564908903 4.410922901738691 15.571439936050266 8.344923957535054 5.370099984876246 14.970287574322766 8.344882290415889 3.9696681098000854 12.78080546365252 12.62663712274857 3.019428623723044 12.545302906141943 13.476500518761389 2.6298827266660068 13.601439375572335 12.84793119262448 3.44907912297469 16.47042886555654 20.197386006230808 4.753155784985881 4.206212345289742 0.6355652354444126 16.939392291738688 15.603231947971812 20.317699812814634 5.2508486898310816 8.827637533041072 15.79246316965162 16.310822965601783 3.370015764362461 11.990901052115586 16.198363410980225 8.103608836901206 16.393386362223723 16.386469620442625 14.755597742834224 3.441245704572003 19.04118595012992 13.722503190301097 3.180638707765581 19.101269935963295 14.549512171452887 0.3260264572486513 15.437230145225504 9.507019910997538 0.6639551270862794 2.3563380893594017 10.101901371290971 20.736308525488024 2.1437941145077657 8.939805417828486 0.8522592553647065 1.614115445636911 17.608524558381 6.847866033119361 19.97182105664066 17.695942174385458 7.789480425529614 19.69152634602961 18.149863770549683 6.783573668250498 20.770746399476433 1.0981765093101319 17.18693664668744 0.3302598365556355 0.22736705249395534 17.521481946449015 0.02991282484728282 20.593140304043164 18.311261356628457 7.701812806810179 15.583440066369278 17.208645215771483 15.6949204436905 15.692524584338614 17.370959478471846 16.63653483610075 14.896411772046358 16.447866120529646 15.537877071564285 20.3278249227713 17.631212304765377 14.65234662154774 19.442565309029312 17.383584615578304 15.027684030970114 20.470743141501178 17.221520355592922 13.774149584503922 1.9355626864895235 3.7564366274822563 8.703261182338832 2.68565416566599 4.210066553812341 9.235391961172441 1.950325346809056 18.510451019788277 18.21209361301997 15.89992266997359 3.694206785011972 11.120787436189437 15.075705385805737 3.6338102957848704 11.674793452583742 15.769567087671426 3.139575761830218 10.370508454976735 18.53601379739492 13.945609779860614 19.4821282386748 18.73080757948302 13.926130401651804 20.443138675055536 18.570160001549183 14.888349184488273 19.236292235611746 9.652083986364323 12.63517888217703 9.312580299422324 17.37641787108223 1.8567201636088595 19.08904063648889 6.199254822664942 20.508764387737624 18.047883496397677 0.7803751413843021 14.848223748734084 1.5080101266877457 16.30315621567575 1.7632753988174419 15.91771452985629 0.8293027560617249 15.782608895969517 1.1892337481734965 2.417838757244329 3.006490983222861 3.9991684301676527 1.7800255807210603 3.344911325066615 3.367724072808483 1.9379481290616185 2.3310669815869027 4.5302158639030194 15.098372298630535 10.88374319526982 16.117758368958956 16.023153174898844 10.6724284004335 16.382198740728395 0.7979774158748087 9.281892466158606 18.346490905880966 1.7744359366853129 14.196112500269951 12.517219267825926 7.2718706377243905 1.6296010304739255 0.6674301648244927 2.4217137993265094 14.445448541342722 13.207226761169014 19.098936577290154 20.824496983197 8.74542830693202 19.34010586300693 0.5071117571320489 9.575999826772264 18.22771878270618 20.3136581022558 8.85651284662119 8.792845488539776 16.269322514915206 2.236128450573483 8.246902059703554 17.05210184907523 2.0462472218347276 8.850512781461685 16.387844635375014 3.222014157094668 8.546467812927595 14.473344677622503 0.0740758044483903 8.737136550218535 14.920120362850236 0.9321663731399908 2.476172724072851 15.128247623070571 15.34287495388037 10.45363435770738 15.098351465070955 18.744807731521863 9.76298102401726 14.815785896465508 19.381272976740203 9.959483157991052 15.19426917338471 17.911611183174333 8.021920449781694 9.358559965418948 7.631270374066831 8.421424788318744 9.313976147914293 8.572655597321686 7.579415644268192 8.493467237351966 7.4964564100142 5.428808955777237 5.871209593492831 0.9783335411728498 8.838304315546859 11.04809914680918 12.113485716693809 9.564916373074846 4.371609974808184 3.562184517943278 14.61701290449732 15.95304824690671 9.832981784211485 9.185183082580748 7.222328433039309 14.833411087871555 14.267404941158238 16.48415818132082 9.025056343636457 16.38599044857225 15.267269966158686 4.260192098165707 5.8753971389687365 11.392707055848675 7.249870398806205 15.63919067180968 15.897339308585469 4.304359244478731 19.48058655526576 8.76207432103773 8.274860696662081 18.697453050592856 8.1357966864548 8.216776732548539 19.145562083633813 9.395018694686776 8.911742613072052 15.9325480242784 4.270004704728648 2.454755824822951 16.56301320433723 4.936845279816981 2.7962386999252025 15.004579613394103 8.855512835761273 11.992088565011738 3.057449869959491 8.767032708218155 2.550194361266329 3.686040029655979 8.633406257061676 3.2904524003202735 18.78709985747254 13.952901525714179 8.810512347064984 7.214182511242898 3.3560364458831975 9.703584545650074 6.437882414112759 2.73196716861592 9.769876932238773 7.7092087204616515 3.236805984397615 8.81678324849905 8.546113642414708 16.33401071741612 4.80473967850996 8.92228439422035 15.530731160627791 5.18928552126741 8.967514052072035 17.10016487103001 5.264307169320806 13.870067292817678 10.571281468664758 1.4799181549478961 0.0059646481082163754 18.968518494309247 15.169477237482587 13.435937578255984 11.335102263605508 1.805871694738012 11.735544112323732 7.210349136279881 9.761314339250731 10.868680531692313 7.606353436807219 9.97067077948638 12.085381244818212 7.085431113028517 10.668678359708807 4.555945309986313 16.20540515411881 18.84137128018265 4.95515797868922 16.1160083499541 19.72490170847936 5.141014163716808 16.743744333707745 18.311615527141342 12.110589851911964 8.292152551114821 14.075757026566963 12.785013842688006 8.28671499206402 14.833036083799087 19.117978450747753 0.7709354555378725 5.313182700099274 13.697919589994793 16.41938664458158 4.419485494726735 13.332040616622471 15.969923430167817 3.636914496162531 1.6098445659226799 14.725659917715443 7.15770273121714 1.276584696787292 8.519571687507732 7.949857167188887 1.7796797436320055 8.156880248751396 8.698698632790457 0.3505142231808816 8.473967025583576 8.249631256008746 5.018346164900259 10.846763627012452 5.921730975478249 9.92671196876917 13.49018816740651 9.64960479277411 5.185014641553178 9.916691026610414 5.684145062009511 7.103493809185777 20.175823272063834 18.039070900694657 0.7420851422292518 2.9476361774047986 19.469690603604576 7.5963116610888815 20.643849188064817 17.318729744600734 14.502365826119693 10.53698942959342 11.345748212551715 13.996547833037662 10.305028577211718 10.554281284046162 6.233984366487494 17.358667678318692 16.086028857716155 11.59052170407611 10.793596382960171 13.482250581205914 10.773450330844751 10.913576852590694 12.959390736386123 8.612406029003408 14.923287063906642 15.853422164987425 11.381811104187488 19.444523663629987 2.353879729328771 11.6633974954926 19.261896680337546 3.288931550470816 11.210850914260757 18.53605546451408 2.1059395367479707 20.8159968908877 19.053415249604328 8.30400684651676 8.56782221149875 0.37525824189596574 15.076976232940215 12.828847652047724 10.205485829530762 0.10122193258323466 7.096056228415141 7.700229456281977 11.456707750883394 6.826782470822767 6.968471509537331 10.897493344593686 7.268578935310495 7.4314557041195615 12.40050966704972 16.90845445575999 10.918139402139067 4.61884182636321 16.511325143015245 10.042359058006717 4.466944343453654 16.252384830975352 11.463999496736962 4.935136927931288 17.974216029717088 0.2013188529490621 13.686231963069506 4.531465877477916 5.118513919368663 18.281886037618378 17.37079280999519 0.46553630563097803 14.422531625802943 4.007085182808667 1.3950943171113508 15.523668583929624 3.454287512870094 0.7891481533241202 14.876765725360896 0.9060035890173986 19.796048314450577 16.323656438304056 17.2197286694689 6.903262468046876 8.35392405527431 16.773682158826524 6.771823540646467 9.201287424137337 17.646358302581213 6.088170282975771 8.123754889016627 11.096849676230159 19.3030846276304 18.524263669790887 11.000952801475986 19.39014807312197 17.554586472624198 10.343841498712267 19.645255010198845 19.02672745978028 7.926315244861662 18.30434461484736 7.88977318135551 6.7394065219374735 0.5182660449320456 6.6850934321082045 13.873463163029482 7.240870301066947 6.396194461389949 9.60187510777263 7.567623849544997 2.7947595171949073 10.345237347204236 7.960898953767143 3.32743196857764 9.424289845898944 6.721718829852683 3.275973076411051 18.17423903526017 11.43547835366973 2.3524422137176395 5.124055646217373 6.327839552402669 16.324135610174434 18.58801436211063 12.293883509111012 2.0133010307123618 8.889034033128093 3.082366807219103 16.459678748812422 9.897899155867798 3.067429144999085 16.481262316538977 11.500916564315583 18.500346743391194 5.272328089759727 4.185524620625199 2.207169802755038 19.967466842688104 4.123148943237844 1.4814744218486429 19.317334782384226 3.2195141299448746 2.454630823465461 20.04017596562794 17.93113222850231 1.1180517251509927 6.420361390504622 18.40780407172966 0.871228211363767 7.2348494023478604 17.490794113185295 1.9766027155093469 6.5674879882699875 19.529232916888834 18.198072627421542 20.397346511095147 19.841590475695984 19.065373712804174 20.074363836901373 18.941830704485195 18.3838454782108 0.2982803225978565 10.246569609025707 12.008317907925816 4.348109719600123 10.383279427000264 11.267872366835638 5.014075285186028 9.231496085530678 19.527232895168996 5.0835343728311315 8.559655456142758 18.54805559483309 13.10832985383509 6.477591178675318 11.591542548495609 11.887004090482073 6.017377847517443 6.632051189413412 0.7234099394202922 13.886025799457194 20.571244232922886 5.717187087505952 0.9437289987077871 7.095931227057651 12.860452161933035 2.454630823465461 0.47199679245723686 9.057931700656244 19.706255672653814 1.7881610857376808 2.363775670130038 4.946407883664942 1.8940122352599504 0.6848657708383462 9.424289845898944 4.890573943986214 19.364918632468637 16.648722468455997 1.6206509332776635 19.686755460885422 15.926547959118894 2.243170193712069 19.430106840399507 13.655731631842023 8.173463762178361 17.724546651691014 8.929576140073914 5.055138231121391 3.9296051747246405 7.348704805461386 15.815130082476417 12.88338991103239 9.183141393741751 5.210535752040657 4.8612402920952995 5.651248871430141 6.793844613124233 15.665982629431637 7.614249355888652 14.759014446605608 20.70701654071627 5.901022417254123 7.615999374893507 16.186613283376193 18.978435268670093 4.590674853808865 13.425104127273546 18.320240620808132 4.9417828334378235 14.029069019544563 11.506249955568475 10.14071429279152 20.011008982213678 12.411988958379188 15.059205206617099 11.213434275648877 9.5743748091249 9.039348165509443 16.452137000243876 12.399197152796077 15.603919455438005 12.013276295106241 4.553195280121541 8.84667940649867 11.722606471823548 5.467080204728664 8.447029233044548 11.624167902800416 4.292296613480976 8.697511119894305 12.681804388520685 5.051534025313771 2.1608567998051083 3.9863141239057964 16.09429978087006 6.356589864625299 19.93709151281811 5.352016455159404 1.7204728506570137 4.815510628813654 1.395331819690581 2.7058002177814116 20.194323472972307 1.2230403653065833 3.5410176214083573 20.787517414939632 8.713802963487128 0.18271031753076358 20.326741577673054 18.052862717137685 14.547782986007613 8.844096045110549 18.04055008342495 14.910161921370225 9.783918751396783 13.111829891844799 20.583306863920644 11.609396909057052 4.868802874223426 8.347048980612378 4.3034425678571395 20.769225549626977 10.85420120778309 19.28708445387172 5.045408958796776 7.476102022302961 4.721197104587684 1.8968143490236777 13.02218308496511 20.484493290825043 9.654854849788677 9.14766184177426 20.18736506407205 1.0920139423858901 12.74536757880419 19.992321279268968 14.07484034994537 11.77294035177273 18.47861734074757 3.4401623594737587 2.136335700177547 15.849547122905244 14.805952456342988 12.262153997868214 18.974851896422056 20.636724110687904 12.630074660079535 18.90212193992264 19.69548472235012 13.043912487608734 18.97551857032867 0.06228192636923805 12.850827057406326 17.952757463348025 14.89101588011472 2.6625497480899787 8.685948494326508 14.014381360039526 3.132096513940418 8.822533310943577 14.728243279103562 1.6776744692085022 8.57992650961567 0.7302995975739324 5.121493118388834 0.8853096142849806 1.53976880491396 5.655019745714413 0.8671823340930174 0.04644217101933617 5.827021613620227 0.8967743221227432 11.501062399232655 3.5211840726866597 16.710827309568792 4.656613069884677 13.782691343932385 2.944115305835506 11.532812744035034 4.453923368715145 16.989017830662096 15.57456496998751 20.25278244115832 18.1193634393222 14.636263113550731 20.28607446936974 18.48378406352381 16.096299802589893 0.1051261416488293 18.63432736506056 19.80200671249092 1.5776171326058797 10.700970377060312 20.446347043231107 1.2424155757174853 11.329289700482237 19.031123340851998 1.8362886917271697 11.21283010242101 8.5235717309474 3.022616158339031 7.3662466626291065 9.474082053299004 2.6065699734941794 7.360704935780396 7.885106464009228 2.435443115090794 6.819032386658407 9.939045436041487 7.556936233479629 15.436521804199728 5.648603009363275 15.78677560788584 7.750084164360781 10.717074718616901 7.8321267219931805 14.870390656128922 5.453434223202706 11.250413843906244 10.692886955942644 5.895501523964994 11.339643979594301 9.90000334538554 4.978824902373935 10.41042555513511 10.701970387920229 12.399947160941016 15.37358362070367 6.459299313362661 11.47935383014861 15.205706797595015 6.200296500644023 12.841222786439204 15.689212048365137 5.632352832889615 4.760385030160702 17.079206310090907 14.33630152269464 4.310963482866103 16.24846812177401 14.682909453453968 11.519791769296527 11.133995912964178 14.39528132987019 2.818884779190418 6.869991273395037 0.7497185584599556 3.674060732896551 6.488382962538595 0.9286121678753673 17.152019600828652 2.212211524173789 0.691517926412756 11.55454214667866 8.22233929295683 4.676863289798007 11.154204465758346 8.775053628657076 5.36782912688185 12.091381309977715 7.560873776240554 5.133514082267426 3.4877462095581677 13.680690236220796 10.386737797890813 10.328320496823963 2.1710235768809363 2.653237146956997 4.1555867955064185 14.397593854983752 10.533801894977433 11.18522563597537 16.931850543170146 1.6039153348657524 2.957698786682719 20.139760380428058 13.69787792287563 18.89980941480908 18.724536678048953 2.563902843471032 7.795230487974141 6.733135620503408 14.047131715701825 7.143160906629173 6.674968322151538 14.769618728432649 8.650531443037764 3.5521010751057767 15.540543767190732 5.674978295793601 12.077964497607155 20.527472924241913 5.074200938138568 12.511698374536797 19.850569739875663 10.393383703397348 5.732499753798439 7.168702850676233 20.322283195922587 18.828433639682466 3.972584808141512 3.0080743337510634 4.486548723019954 16.817703470222476 0.38282499073600834 18.68228621921744 3.730311343766911 8.903763359752293 20.131822794227464 19.979362805209206 8.156921915870559 20.038571781540156 19.273563473703252 0.34152245886545657 14.229342027802629 16.412282400764248 17.439356054578287 13.166538819306119 13.148559457387186 17.847131316269238 13.822670944769504 12.54642791835935 0.21251689122418016 12.459885311857322 14.512532603195522 11.115912383247338 2.08748100295866 7.158202736647099 11.302122738787812 1.0726220651273228 7.110077214013567 11.58433413688037 2.4594225421692326 6.383902661236795 18.07500879097294 13.468792101716192 15.8187759554032 17.97167433544813 14.440948492473092 15.864651453601917 17.9465490625927 13.29874858841105 14.831681902426281 2.120273025740122 20.469805631320003 7.513414927513635 2.841176687942746 19.801465039941796 7.594457474286117 1.2775347071042136 20.01157148832238 7.771959401921476 15.929860495092372 13.154997027297906 19.692276354174552 16.824286875050266 13.390541251927644 19.46975310428332 15.731629175673303 13.80339990215651 20.398284021276318 15.948839867871223 17.598107778590194 18.3198239496165 15.97294429630715 18.570222502227928 18.20942691739352 4.79338538853798 11.705022947536664 3.008345170025625 14.534116170922074 4.409547886806306 4.805823023608204 14.10759070560767 5.269390557858719 4.831239966297774 14.817410914112875 4.350193075558284 3.84433341535709 0.8613551874780396 7.40937213096305 5.627915284698732 1.329747774127657 7.685375128300285 6.413736318557668 0.8050545760646833 8.156171907725621 4.967303943925302 18.259031622757348 16.516096028159435 18.77753725362458 18.84739217890174 17.12860267985892 19.29468870311901 17.392959717390028 16.914558688717406 18.812141796089644 20.61139050223666 4.063169125202374 3.023595335639367 0.03416078764597412 4.615800126664293 2.293170736707945 20.418096736438436 4.657404745148779 3.805812163690684 8.905450878078403 5.3811001043353395 6.541862709984601 8.161671967455167 5.9945859333351565 6.763427616135076 8.625906175612293 4.411339572930324 6.708885357150408 16.237468002314916 18.07073791125871 6.638509592883713 15.336499884648395 17.658629269174785 6.711822889051416 16.326010630536782 18.618910530970165 5.832417505551865 0.7662937384630886 11.975963389895568 13.856337977053395 12.067526884256766 9.202787440427214 13.718003141431469 11.375123531561792 16.97787187628593 0.6598571659165757 3.9119799833185938 13.458791993117016 18.764162108373185 4.074544248733936 14.460365370003156 18.83682956419386 3.1478675185437006 13.302373627778252 19.39285643586758 19.029081652013 5.617561005586669 18.02475824526209 20.351971018326388 9.844794412494261 0.7065014224638535 5.646227983570971 0.6876116339912032 9.263329764571386 1.8043341780408888 15.458792879392474 6.52457085553186 1.0641782234288943 16.050695140665738 6.492153836822867 13.276456679658722 17.328792353878654 4.442756580779399 0.4088065228902404 7.274516499791256 12.014463808002391 0.15709337266920978 8.205401609016977 12.194694931942944 16.62453470578174 19.052727742138135 9.645958919847327 8.135130012548188 1.6019944806723274 0.26254451784751226 6.491007991045878 6.591279913312191 8.104067175212 19.008727264301765 5.096180343497172 12.590136726361578 13.35770756202702 7.759105095659621 18.562680753659386 12.618137030439268 14.11623663283404 11.498833208357421 13.76946203359806 20.759933782053576 6.683218411745858 8.127692431777552 3.9240009471971855 14.108715717825078 8.540551082006417 3.507204754207396 13.288123473024426 7.167036165909703 3.6802483000922903 13.923922044336152 8.208005803964678 3.6408728724830377 19.155249688839262 10.099568012617832 11.016765473198433 16.34136496394843 8.359611617040091 3.5637262013523174 18.173884864747286 20.805413442620242 13.34895746700274 16.120383397466238 19.833194551184594 13.510563388677328 16.034778301145387 9.483894659861946 9.574333142005736 17.981257772855674 2.62244514589537 19.552816506335223 4.111148812918834 3.572184626542453 19.511941062436094 4.304546746514966 2.19094045984096 20.210115311135173 4.673238250430806 7.092077018535052 11.806003210828754 12.606636905550218 13.530355270279863 11.175371362293268 19.007623085643935 16.049320125733352 8.009732817426448 14.018006399406726 6.089003625359036 20.303012153309595 8.048129067735365 6.811261468934464 19.627171480482005 7.90164831031703 5.273244766381318 19.810777641074775 7.880898084973741 17.09743567472482 2.0990644620860377 1.6600034439713762 11.009640395821519 18.514576064585437 9.710147116918284 5.967627307236547 9.02211881173545 20.0734263267202 16.382032072251743 11.147891897205117 0.522076502979523 17.01333059469384 11.298393531622704 1.2758305219304376 16.377407022024624 11.928775377443209 20.808871813510788 11.899525059790623 11.263205649489356 8.057316667510857 8.589093275831582 11.612459442315549 3.439433184888402 11.235267846090409 11.752127625750697 8.528634285925733 5.961668909196204 15.6724827000211 0.13121809166884393 5.711312023703937 15.235019615926348 0.9547082846072983 6.332277100593553 16.517471043091824 0.4576945538044581 2.462110071355261 19.249104874754437 1.4720701530535019 6.5954674587