-134633.53231923914
-134632.17989155586
-134631.30492352153
-134631.1916757284
-134628.52207992066
-134630.82131314743
-134632.6879540795
-134629.2398198987
-134632.1609720249
-134629.79747693817
-134630.99253057616
