17.790911285985644 0.0 0.0 0.0 17.790911285985644 0.0 0.0 0.0 17.790911285985644
17.604569998899276 0.0 0.0 0.0 17.604569998899276 0.0 0.0 0.0 17.604569998899276
17.823732443979353 0.0 0.0 0.0 17.823732443979353 0.0 0.0 0.0 17.823732443979353
17.84849476226705 0.0 0.0 0.0 17.84849476226705 0.0 0.0 0.0 17.84849476226705
17.869448063009017 0.0 0.0 0.0 17.869448063009017 0.0 0.0 0.0 17.869448063009017
17.824962780988773 0.0 0.0 0.0 17.824962780988773 0.0 0.0 0.0 17.824962780988773
17.75906010981484 0.0 0.0 0.0 17.75906010981484 0.0 0.0 0.0 17.75906010981484
17.651375722978145 0.0 0.0 0.0 17.651375722978145 0.0 0.0 0.0 17.651375722978145
17.80235791817954 0.0 0.0 0.0 17.80235791817954 0.0 0.0 0.0 17.80235791817954
17.71966604171617 0.0 0.0 0.0 17.71966604171617 0.0 0.0 0.0 17.71966604171617
17.848918104033732 0.0 0.0 0.0 17.848918104033732 0.0 0.0 0.0 17.848918104033732
17.795499252382065 0.0 0.0 0.0 17.795499252382065 0.0 0.0 0.0 17.795499252382065
17.81785169766292 0.0 0.0 0.0 17.81785169766292 0.0 0.0 0.0 17.81785169766292
17.86374459105738 0.0 0.0 0.0 17.86374459105738 0.0 0.0 0.0 17.86374459105738
17.940393792978558 0.0 0.0 0.0 17.940393792978558 0.0 0.0 0.0 17.940393792978558
17.826839243369594 0.0 0.0 0.0 17.826839243369594 0.0 0.0 0.0 17.826839243369594
17.87479751540826 0.0 0.0 0.0 17.87479751540826 0.0 0.0 0.0 17.87479751540826
17.83725556753883 0.0 0.0 0.0 17.83725556753883 0.0 0.0 0.0 17.83725556753883
17.92659867233399 0.0 0.0 0.0 17.92659867233399 0.0 0.0 0.0 17.92659867233399
17.93865544584912 0.0 0.0 0.0 17.93865544584912 0.0 0.0 0.0 17.93865544584912
17.9065687858206 0.0 0.0 0.0 17.9065687858206 0.0 0.0 0.0 17.9065687858206
17.89866552421384 0.0 0.0 0.0 17.89866552421384 0.0 0.0 0.0 17.89866552421384
17.881956753860077 0.0 0.0 0.0 17.881956753860077 0.0 0.0 0.0 17.881956753860077
17.719189782228653 0.0 0.0 0.0 17.719189782228653 0.0 0.0 0.0 17.719189782228653
17.730588259296585 0.0 0.0 0.0 17.730588259296585 0.0 0.0 0.0 17.730588259296585
17.83340739087968 0.0 0.0 0.0 17.83340739087968 0.0 0.0 0.0 17.83340739087968
17.91645857866752 0.0 0.0 0.0 17.91645857866752 0.0 0.0 0.0 17.91645857866752
17.866150230646554 0.0 0.0 0.0 17.866150230646554 0.0 0.0 0.0 17.866150230646554
17.83338886967739 0.0 0.0 0.0 17.83338886967739 0.0 0.0 0.0 17.83338886967739
17.8413588076124 0.0 0.0 0.0 17.8413588076124 0.0 0.0 0.0 17.8413588076124
17.89463848565827 0.0 0.0 0.0 17.89463848565827 0.0 0.0 0.0 17.89463848565827
17.825925883507978 0.0 0.0 0.0 17.825925883507978 0.0 0.0 0.0 17.825925883507978
17.790110640869404 0.0 0.0 0.0 17.790110640869404 0.0 0.0 0.0 17.790110640869404
17.80275903450347 0.0 0.0 0.0 17.80275903450347 0.0 0.0 0.0 17.80275903450347
17.88597902982077 0.0 0.0 0.0 17.88597902982077 0.0 0.0 0.0 17.88597902982077
17.912927379156176 0.0 0.0 0.0 17.912927379156176 0.0 0.0 0.0 17.912927379156176
17.965107426963087 0.0 0.0 0.0 17.965107426963087 0.0 0.0 0.0 17.965107426963087
17.88189113588624 0.0 0.0 0.0 17.88189113588624 0.0 0.0 0.0 17.88189113588624
17.87285384752198 0.0 0.0 0.0 17.87285384752198 0.0 0.0 0.0 17.87285384752198
17.86076003160227 0.0 0.0 0.0 17.86076003160227 0.0 0.0 0.0 17.86076003160227
17.81926989258131 0.0 0.0 0.0 17.81926989258131 0.0 0.0 0.0 17.81926989258131
17.878012796126217 0.0 0.0 0.0 17.878012796126217 0.0 0.0 0.0 17.878012796126217
17.919490764071384 0.0 0.0 0.0 17.919490764071384 0.0 0.0 0.0 17.919490764071384
17.838275821196536 0.0 0.0 0.0 17.838275821196536 0.0 0.0 0.0 17.838275821196536
17.818919577269376 0.0 0.0 0.0 17.818919577269376 0.0 0.0 0.0 17.818919577269376
17.898407285736162 0.0 0.0 0.0 17.898407285736162 0.0 0.0 0.0 17.898407285736162
17.802688124757548 0.0 0.0 0.0 17.802688124757548 0.0 0.0 0.0 17.802688124757548
17.77720982970695 0.0 0.0 0.0 17.77720982970695 0.0 0.0 0.0 17.77720982970695
17.828880809039426 0.0 0.0 0.0 17.828880809039426 0.0 0.0 0.0 17.828880809039426
17.806501375720945 0.0 0.0 0.0 17.806501375720945 0.0 0.0 0.0 17.806501375720945
17.882934144163904 0.0 0.0 0.0 17.882934144163904 0.0 0.0 0.0 17.882934144163904
17.84839739366071 0.0 0.0 0.0 17.84839739366071 0.0 0.0 0.0 17.84839739366071
17.845750978441735 0.0 0.0 0.0 17.845750978441735 0.0 0.0 0.0 17.845750978441735
17.83595273325186 0.0 0.0 0.0 17.83595273325186 0.0 0.0 0.0 17.83595273325186
17.94227025535938 0.0 0.0 0.0 17.94227025535938 0.0 0.0 0.0 17.94227025535938
17.94175907017611 0.0 0.0 0.0 17.94175907017611 0.0 0.0 0.0 17.94175907017611
17.807173959952763 0.0 0.0 0.0 17.807173959952763 0.0 0.0 0.0 17.807173959952763
17.884338580474875 0.0 0.0 0.0 17.884338580474875 0.0 0.0 0.0 17.884338580474875
17.91215054701431 0.0 0.0 0.0 17.91215054701431 0.0 0.0 0.0 17.91215054701431
17.866424344440485 0.0 0.0 0.0 17.866424344440485 0.0 0.0 0.0 17.866424344440485
17.862573521895296 0.0 0.0 0.0 17.862573521895296 0.0 0.0 0.0 17.862573521895296
17.82162843539894 0.0 0.0 0.0 17.82162843539894 0.0 0.0 0.0 17.82162843539894
17.851287230395528 0.0 0.0 0.0 17.851287230395528 0.0 0.0 0.0 17.851287230395528
17.930030386530163 0.0 0.0 0.0 17.930030386530163 0.0 0.0 0.0 17.930030386530163
17.843513617204817 0.0 0.0 0.0 17.843513617204817 0.0 0.0 0.0 17.843513617204817
17.845324461611803 0.0 0.0 0.0 17.845324461611803 0.0 0.0 0.0 17.845324461611803
17.839645331811752 0.0 0.0 0.0 17.839645331811752 0.0 0.0 0.0 17.839645331811752
17.82603753989894 0.0 0.0 0.0 17.82603753989894 0.0 0.0 0.0 17.82603753989894
17.91364970604558 0.0 0.0 0.0 17.91364970604558 0.0 0.0 0.0 17.91364970604558
17.867105924684843 0.0 0.0 0.0 17.867105924684843 0.0 0.0 0.0 17.867105924684843
17.88052215444823 0.0 0.0 0.0 17.88052215444823 0.0 0.0 0.0 17.88052215444823
17.91362113047633 0.0 0.0 0.0 17.91362113047633 0.0 0.0 0.0 17.91362113047633
17.83495364668249 0.0 0.0 0.0 17.83495364668249 0.0 0.0 0.0 17.83495364668249
17.817831588929003 0.0 0.0 0.0 17.817831588929003 0.0 0.0 0.0 17.817831588929003
17.9133533668089 0.0 0.0 0.0 17.9133533668089 0.0 0.0 0.0 17.9133533668089
17.814603607958045 0.0 0.0 0.0 17.814603607958045 0.0 0.0 0.0 17.814603607958045
17.852026490955602 0.0 0.0 0.0 17.852026490955602 0.0 0.0 0.0 17.852026490955602
17.86374776612063 0.0 0.0 0.0 17.86374776612063 0.0 0.0 0.0 17.86374776612063
17.922918244849892 0.0 0.0 0.0 17.922918244849892 0.0 0.0 0.0 17.922918244849892
17.838500721510083 0.0 0.0 0.0 17.838500721510083 0.0 0.0 0.0 17.838500721510083
17.837671500824595 0.0 0.0 0.0 17.837671500824595 0.0 0.0 0.0 17.837671500824595
17.830837706355915 0.0 0.0 0.0 17.830837706355915 0.0 0.0 0.0 17.830837706355915
17.90867702781868 0.0 0.0 0.0 17.90867702781868 0.0 0.0 0.0 17.90867702781868
17.83824142467799 0.0 0.0 0.0 17.83824142467799 0.0 0.0 0.0 17.83824142467799
17.881908069556907 0.0 0.0 0.0 17.881908069556907 0.0 0.0 0.0 17.881908069556907
17.862145417533736 0.0 0.0 0.0 17.862145417533736 0.0 0.0 0.0 17.862145417533736
17.854755986996288 0.0 0.0 0.0 17.854755986996288 0.0 0.0 0.0 17.854755986996288
17.880748642293405 0.0 0.0 0.0 17.880748642293405 0.0 0.0 0.0 17.880748642293405
17.814088718534318 0.0 0.0 0.0 17.814088718534318 0.0 0.0 0.0 17.814088718534318
17.904339362241803 0.0 0.0 0.0 17.904339362241803 0.0 0.0 0.0 17.904339362241803
17.858819009602026 0.0 0.0 0.0 17.858819009602026 0.0 0.0 0.0 17.858819009602026
17.890249489892184 0.0 0.0 0.0 17.890249489892184 0.0 0.0 0.0 17.890249489892184
17.830577351169406 0.0 0.0 0.0 17.830577351169406 0.0 0.0 0.0 17.830577351169406
17.922629843271338 0.0 0.0 0.0 17.922629843271338 0.0 0.0 0.0 17.922629843271338
17.945389225825416 0.0 0.0 0.0 17.945389225825416 0.0 0.0 0.0 17.945389225825416
17.878971665227755 0.0 0.0 0.0 17.878971665227755 0.0 0.0 0.0 17.878971665227755
17.82753934481625 0.0 0.0 0.0 17.82753934481625 0.0 0.0 0.0 17.82753934481625
17.922312866123534 0.0 0.0 0.0 17.922312866123534 0.0 0.0 0.0 17.922312866123534
17.78981800587318 0.0 0.0 0.0 17.78981800587318 0.0 0.0 0.0 17.78981800587318
17.776209155605958 0.0 0.0 0.0 17.776209155605958 0.0 0.0 0.0 17.776209155605958
17.799626834607224 0.0 0.0 0.0 17.799626834607224 0.0 0.0 0.0 17.799626834607224
