10.156000417612148 11.508099000800284 14.548599542306675 9.340760373389914 11.825499532689042 14.136400139630545 10.557599995344088 10.992399192626806 13.822999004598879 12.24659972828155 7.788839611910971 13.809098965611138 11.528800505172658 7.5378792382197295 14.461600207027077 12.450399954335902 6.985789900101895 13.215900168784778 13.632999188429068 9.649429126019507 9.689540514604891 14.229699236596511 8.992679414988476 10.103499438407205 14.08059894638205 9.90544033942484 8.814469635727887 6.368559140310422 10.661399288151044 15.578300126625825 5.8062097836539595 11.453799360464329 15.69609908752372 5.677069116811247 9.951758976957905 15.625700451565075 10.465199339398064 11.15649900014648 3.82146995331843 11.26249902867951 10.765899542862664 3.456909273792784 10.39319952142368 10.960900384194968 4.7783292095593675 4.831799793429398 12.349799467378167 0.5315283819446215 4.815240013204402 12.597500546121815 17.363100358656062 5.264659781381942 13.056100424522926 1.1022394669054978 16.52370025690746 14.873899238806409 15.535199864944396 17.352500533711872 14.733500483301924 14.960400428569999 15.804299851782828 15.084799817554996 14.89929932284941 14.824600623632943 7.971929438137307 11.320999103170088 15.304900076529568 8.405759030754938 12.011099656497828 14.335199340522406 7.190639789922119 11.690400689656652 17.704899346282417 11.766899829095262 10.125800345704187 17.770599402570433 11.721499202584555 11.067900261942272 0.7765003348970009 11.963999997959311 9.865640291786963 10.611800006576843 13.569400238763926 11.009999741162032 11.203700066879328 12.763799310276438 11.0790996405968 10.690300623535126 13.996200642332465 11.872200674814755 8.074769800825948 13.075599263292366 10.002799322346268 7.566889098162658 12.396899125916685 10.544100251860282 9.009029262460297 13.14029947036611 10.242499828284611 14.002398995824501 14.154199946372174 1.1765698942583458 14.38359951467593 13.31320044169896 1.485439684185471 13.557400269101528 13.936999605937217 0.33539070138114413 15.242900529789036 0.7028993349068782 0.6521525395547327 15.446900014049792 17.57399915831352 0.399754660231583 14.512500004216282 0.800781370620114 1.3587292558244242 0.8685558471640763 6.111439553131973 3.5333194586749634 1.6774303033281852 6.500110475632386 3.1993893911103988 0.8384002525343306 5.135679232740804 3.5029201285606004 17.03569955553345 12.30039944401037 3.6015298125454325 16.397299390402786 12.051499257846045 2.9142206531984636 16.793599055662632 13.049099700931889 4.227280639751762 15.902398936613753 13.930199919643714 12.160600242216224 16.501299720507273 13.086900050141224 12.26940056018567 15.981799773683107 14.180299213228714 11.235800208112632 15.109498939693331 11.687498992025908 1.423470381994126 15.480400300001302 12.045699420766814 0.5859988150289237 15.491798936862235 10.77620048049725 1.4011605792414998 11.534399304954357 8.132910498908549 9.236729798736242 12.208199825361879 8.770880123986093 9.55635953180913 11.960299488411826 7.265559096438533 9.416519410919026 12.649300563422091 10.729399709268337 2.190440125715224 13.47839972753611 10.920299745549219 1.776979347428918 12.238300268166636 10.000299699310588 1.6861300589470323 12.329299000303326 3.6572794121511976 3.3457801255360033 12.641200361513583 4.401930457664027 2.812109717872549 12.861999803301693 2.933829795617877 3.0700405706056406 10.217299002448012 8.061949670153266 2.3993694714933254 9.497619280016192 8.696740059384005 2.38583058800469 10.803100338361661 8.222699449077789 3.210850296160831 17.582400026622764 4.559129170695867 16.86140021857352 0.7511162626741565 4.760700195566084 17.010299471490452 17.494699729438498 3.6762694308578583 17.34329907439476 17.08440039608771 3.4529596914872953 5.852499955728965 17.561499264043988 3.2972198331809053 4.973520413642431 17.703799867964943 3.7966302829809373 6.490129774400949 13.411299526529886 2.436789095201139 12.008199737958213 13.967699602452317 1.753799569114407 12.442399381530594 13.678399814939775 2.524249215083044 11.08819969171958 11.861099146172299 8.593109780234267 4.296079872785798 11.441299466194794 8.502150188102409 5.182570737617277 12.686899875333895 8.013629555100529 4.127539453809142 17.78259937223283 10.05509926425368 4.705740512421417 0.8735871168757531 9.904709132970988 4.316180044356705 17.50959961764051 10.889799007240525 4.300390610590392 6.834149067755796 16.25320012535082 5.537559906871062 7.228280020929879 17.10299901474608 5.909859632806112 7.523370750066008 15.577499535617955 5.594949828497394 9.898660223133753 3.4042890954822242 9.052629448748862 9.683950610278833 3.860770076349173 8.137600183123533 9.771850165669504 2.4732907078865956 8.762529070228451 2.601470665519865 12.100899281213842 9.666809067254786 2.2200495393684903 11.23240036496588 9.283240578111192 3.0285503863955934 12.57969896028906 8.943069458867505 4.206340737168158 17.771800289082236 12.680399076349996 4.468559199521171 16.77650021082567 12.470199459506075 4.366949967893522 0.5231026063595787 11.864399360215849 17.353500382926143 1.0107799501665027 7.228290695476651 17.35799970439037 1.8847798161840905 6.738750643258084 0.33810025716999975 0.9601434584643305 7.895019328647991 11.243500114517207 0.7139457117243467 0.5196155877475255 10.972800724754164 1.6218301473772228 0.17143322115175766 11.647599315284827 0.2076074810695523 17.578599887972075 4.622080531190198 12.660400312973417 15.65700000179051 3.906960619320977 12.272698995138091 15.117700549796169 5.00230077082977 13.480499055067854 15.329700606862232 0.726358430528579 11.166999195987469 16.64690053847178 17.575100415722122 11.558299615175951 16.476399561071407 1.0222906697685354 11.347399036427364 17.56800006302789 16.88039913273583 7.050600410825611 9.809349848478103 16.15649940614697 7.269549597839979 10.367299512773544 16.91170046205239 6.071399328191734 9.70154937972293 0.4166595841355266 16.819600472507098 10.646700437246562 0.12377848618111652 17.19349960136676 11.540599437537523 0.8771719854998792 17.60079938707473 10.293899550080951 0.6446910313613904 3.3832691337978322 3.391589943006288 1.3239996179030515 2.699989615857139 3.613919403164993 0.14916255840396084 2.9245304862886927 2.620999748838491 13.652699064496039 12.92599904847077 13.072000161939211 14.45849925118993 13.333900166980206 12.688700315556035 13.28129955867206 12.280699567943397 12.36079958782629 5.810570336010155 1.5151700760354818 3.903710219829027 6.7671894149487315 1.2594790990332962 3.7753701439941842 5.683379553044387 2.278779116614657 3.2868690809947188 1.4878894926695514 0.34125458574100503 0.1964294515085675 1.8733295856804304 0.5655908606927695 17.099499542496126 2.171080056053815 0.18316454805373658 0.8895615761194395 4.424300749515025 11.287199929908972 4.632290735177226 4.128320474814596 12.221900606143215 4.470509083398116 5.145350372115866 11.29760049664676 5.3597006085628065 3.6440892305237678 9.847310315889011 13.492799691130985 3.0112202597119144 10.512599664337316 13.818099387630719 3.0992995033065722 9.103879726890401 13.148999225984957 1.2473599302652827 14.581199608147115 14.297000474900267 1.6528503802954675 15.481800444719509 14.180799137835852 1.2041991794854816 14.342699988720577 13.337098972829427 8.82324945044752 17.368199233830623 1.4482495632332468 8.588149674167735 0.1302543778892153 2.229720678743552 9.673580288090234 17.601100053475463 1.0780100248251139 4.60568976462242 0.5625076957669083 17.42740027022587 5.52868935850387 0.43400928082161977 17.267899413273625 4.350109091270208 1.5734797877752997 17.589500379317 12.077799562000118 14.859999199818668 8.938970432907213 11.486600463602299 14.34780064298627 9.587639512032151 12.463499402315772 14.106799621432922 8.411370284174538 9.06897040076504 6.919410231002753 6.424659220868522 8.194330061941157 7.007500149144183 6.869709541234223 9.689910565559638 7.639949254449686 6.699139179279837 1.9175400002261047 9.770060399994133 8.503470273719829 1.0709701612292493 10.107799501665028 8.17055962537195 2.4821594771626594 9.651809549949572 7.68895965686032 9.309499963169309 0.5738529598939812 8.575630209895786 9.877239965945426 17.621600520550302 8.214679306270067 8.844059479378737 0.25953203474882997 9.362260689679028 15.325500172707612 5.753529116245027 17.671898984938043 14.879699075885641 5.064729078532293 17.106099970583227 16.29350009759583 5.533489346368829 17.579500108083145 10.986999651051509 8.646429141358366 6.812189745955504 11.269400123167344 8.381969024183318 7.729770228259242 10.621800277810696 9.599379734389771 6.872579215224653 9.00602971481748 14.699299235445745 1.5816298042354096 8.975238984654824 15.669699154266446 1.3798203811539602 9.603629983095994 14.553499159274837 2.3092193658249784 5.383590244237628 15.648200617068461 3.534829907043144 5.808070712974474 16.16050058209519 4.252810597447152 4.785920591405098 16.263399654791073 3.04229030718176 4.5148102315913485 1.5482202519314574 10.451299300410323 5.370279084413453 1.9025493783765333 10.701999926796791 3.768079428549187 2.254989110043037 10.5416006288246 13.130799123739394 1.2068500252670933 2.2606395034674662 12.372200003778351 1.0180902356139143 1.7053798249584688 13.07670052070097 0.5953924161879242 3.0394206331913307 4.508980149962931 15.292199144962503 12.110999181550897 3.6307104652367066 14.849600412172009 11.735299612469094 5.263900109470032 15.175999586989215 11.471300279896353 2.2753792734679053 11.997799171220427 14.710500393191403 2.0474403389807287 12.966599687116517 14.697000649707597 1.6922003178778107 11.573799057088301 15.411300400566533 12.651700557354571 14.852799218021229 3.3238901882897265 12.945999590938476 15.692699244376968 3.7377192384396527 12.985200084866015 14.729300049147303 2.393240502555303 4.869109113487238 4.057080328752124 13.910699301783147 5.484309930300979 3.291980409807183 14.046899402224138 5.024610573582396 4.445870450358154 13.026499906325302 4.006929528928059 0.13992195908201988 2.377499104249463 4.2577102144153125 0.2712615825596803 1.4262706714305402 4.7737498289943545 0.5725595606434902 2.9202393184865123 9.696169408150048 3.451249984912712 3.1263399093701416 9.46227941383771 4.361470367217438 3.3995994112672383 10.687500334098711 3.43865935699562 3.3369291471712255 13.772899798417543 13.053200505983309 5.237259998910396 13.936899976834017 12.085399839301491 4.9542297285350365 13.292498937326588 13.427699188553307 4.437430442044082 5.931730000049974 6.020479961000113 15.56399979213415 5.493230293219772 6.947719129041014 15.50699949146498 5.470810186817173 5.4827496673811975 14.914499877452156 10.392000414003006 11.209800570359294 6.833120753083466 9.598020508767522 11.755800079543935 7.1303090306602135 11.240699825080792 11.672499474720695 7.12110935043423 14.931600501380247 9.811869041516198 7.351510547043387 15.690900583245956 10.358699386257896 7.530570731863446 15.35969964147266 8.893840228248054 7.337459285309715 11.676100355164976 3.2193401190265036 6.0555191607778625 12.012300543009633 3.3877506643507718 5.111410650655591 12.324100496025562 3.7135307154552266 6.607989224397218 13.79939936077802 11.49299985439187 15.264000550574217 13.761300124259082 12.016799864473859 14.398300144671541 13.896299338188268 10.53649997455891 15.214799785412824 16.32990030208696 15.134199840922793 9.653659804723315 16.64199914241249 15.046999468345664 8.72394058364915 16.977900442947544 15.7985996438068 10.044200551999886 2.028729637581258 12.0373003315487 1.0122192348895391 1.716630797255726 12.874300439364823 1.3276503128989359 3.0253800460044307 12.102100167725645 0.9465903422466666 17.01929989351003 4.6701604689405745 14.132199705475925 17.265800085741876 4.4600195621038985 15.036899568008609 16.03079950154697 4.649660001865733 13.895100230767595 11.88559901010423 8.533629426531832 0.3320068700545497 11.30469907024987 8.93056956459797 17.416699037087348 11.255199417778872 8.301669746094023 0.9668577483836615 7.243710078288214 0.2502949936091462 17.01649960407362 7.554930047596218 17.355798968664292 16.395498950180645 7.645930558824034 17.699199138306387 0.034774115199587535 0.9705760488424324 14.071299637052867 2.3864194671682566 0.5058027242250863 14.88289966082599 2.0509095666814963 0.2802495509413602 13.495199685063465 2.8021503657346543 10.720100399939154 2.463450554854317 12.141800586260324 10.546500245792762 2.862150214046641 11.286498968004306 11.669599556181078 2.4826594017697956 12.309599124236353 10.338300327377386 7.016509466619405 15.652699938532688 9.987680605935438 7.77068932421701 16.17899957165036 10.7409993834268 6.305629128909635 16.164599608055482 1.7935391276539134 7.6936795856244915 10.250000476482782 1.723119142601725 8.464460142543048 9.685030518593893 0.8962064814847552 7.284789292447555 10.209999391547372 0.9022429376840901 7.2198400126158075 6.001059402240332 1.6142103000734351 7.897650604427189 6.005829145556104 0.8684704507899036 6.783629996068111 5.081039785999285 3.4609495897458316 4.113580704814157 7.187690056830903 3.7503703554551175 4.6746491158580294 7.933189728812073 3.956679100000793 4.483580065919929 6.393969898900195 5.409120201933018 7.926639115276574 2.8597804646633476 5.704170011973189 8.8481691798858 2.539609887887364 5.935829026010265 7.146820775424737 2.5377703076603932 5.9008805598800755 5.083119543528616 8.753879129161206 6.084689138922365 4.271439460654708 8.176149529698007 6.597279095803055 4.989469965610317 9.476400060125396 16.4000996798392 16.615399950948813 4.125950725431303 17.157400063276366 16.698599147577724 4.699209468888332 16.717900507231892 16.63219990847617 3.1866190749893186 14.480899787590115 4.365430624069698 13.626699426742698 14.124099503567416 4.378030147442433 14.589399439158827 14.050799169978026 3.6455107243355176 13.126799726882304 0.12700575748839432 8.477109480467384 16.41559912175155 17.280299678439956 8.407029301820756 17.109099518226042 0.3573749304572366 9.411979170358842 16.376500036018342 15.510899259218867 15.994600334353374 17.751499080213797 15.877199889868283 15.605500650890967 16.920300588568036 15.01909976126698 15.394100147535243 0.5426815042298059 2.854119396692147 7.620260052929487 2.194519581673101 2.576139966030879 8.561539808157287 2.380119705481889 3.8348291486030766 7.622090737700813 2.3922406533410308 15.338599620687482 5.496959268225314 5.774899558881754 15.933799895033518 6.052909234092208 6.302540626710388 15.860399932340927 4.718290221242552 5.495820649903012 8.264949305199748 16.000199134135073 15.694800350999843 8.67354071106708 15.178899505528832 16.113699810866276 7.584680009448643 15.615600551228022 15.115599443173295 5.7717398930373625 10.439799255355064 2.3965193675053107 5.3040292889667 10.862199966562578 3.1528003317257887 5.476300462040028 10.982500329587284 1.6304907629912406 17.581800472912423 10.967998957798075 7.224490556825963 17.65969975706924 10.796400281171358 6.28022014941099 17.673099871449846 11.942999606277333 7.321579117895844 12.292000354792258 17.288800175852398 16.188400289173874 12.97500055542576 16.593499339155766 16.040399477276885 11.579200377754727 16.959799969805182 15.575099541685475 9.309450148617708 8.84449001943186 10.831800636448214 10.051699421106928 8.543640372312456 10.229099713904006 8.824420092410138 8.048880466722581 11.218000401371004 16.02369914885273 12.304099953557856 16.716100067009748 16.182700081197844 13.167298957333722 16.34480019028897 15.265000399788487 11.881699242350342 16.140400410524283 12.467000653656854 0.7418418606207722 6.631099618157713 13.245899203395206 0.6884086376644428 7.244989244809676 12.077799562000118 1.6764393495695558 6.494810563160291 16.244199703331237 14.201500642208225 5.150710773686333 16.263799950295006 15.051299531603485 4.668979152431186 15.350999885853815 13.815199469091104 5.14055927970655 8.172580672894039 11.596299222591687 17.23109891327856 7.452360106759125 11.186400184744837 16.702100398918805 8.189560318625382 11.35929937698656 0.38220036806570096 0.2509585946001135 3.2229392203796583 12.125399145145773 17.512599165283326 3.720529659955133 12.778900235775984 0.06205647765664653 2.2425194603226903 12.242200035920526 14.359699204454337 8.91495981903565 14.770299204205855 13.476198991810033 8.621979091978037 14.353200184561565 14.394500006020854 8.655840533428654 15.691900432460228 14.228400500072635 10.521799344563298 4.779099556018051 13.677099299324768 9.915739497968298 4.283119193913957 14.363899638608958 10.104999212228613 5.6421793606883 2.1019801566190464 10.244300268506752 2.9926892465164316 2.0437505039800152 10.944500722171547 2.3208902036285854 2.9161705370754074 10.410800069958906 3.458510455808523 16.45929893714332 9.305680254516206 0.9903115067319763 16.645398985559243 8.725169935619009 1.7700497874830265 15.75810041335538 8.835370398306662 0.462504983428383 2.1754103638608235 14.627399046574563 6.282890565195016 1.9137701061246044 15.547899017420331 6.164739344253657 2.4567700676664295 14.269598913337592 5.382190099519421 2.3757502576700507 3.5849593577736654 14.560199216465138 1.783200829105627 3.7460098030989224 13.763399451790828 3.2492199545313163 3.854279951912045 14.22890042467977 10.92440055060064 9.843469258142367 12.640399770505713 10.185300269409039 9.471470198608051 12.050899704135707 11.365800175970458 9.023550204251919 13.03030004497599 14.023799683010413 16.535700226569855 9.775949191629794 13.239999737212774 15.898799835260599 9.614729732647321 14.805799188585913 15.904500043236629 9.734320238311717 4.148760452791065 1.556969822101905 6.082639625942218 4.7790799860156365 1.694719510915906 5.3077707176101425 4.086360610546599 2.4332398083995845 6.468090393499869 13.303700095072244 4.6526897940577365 7.541720295966374 14.02669960155003 5.150819298245177 7.123580508011853 13.775200163246822 4.01691912561514 8.170339018072005 10.413200063891386 3.4473697871612385 0.5029437247814283 9.533229568046222 3.4249301107562244 0.044927388270499545 10.140600604803 3.5834702584990286 1.4434104353634587 17.6764000854934 11.724100233814566 13.113799908005634 0.5463535483192333 11.670499776292148 13.813199770662559 17.145999647324306 10.880899993415277 13.166199479016248 7.751199380903212 7.048499304202737 11.801999517971382 7.944609714766548 6.876599961175287 12.752100007014775 8.000900158075407 6.2064501357636495 11.337900468891775 14.018400141435116 4.167419560547807 16.165900123670486 13.964200130202363 3.1859092176290074 16.209199643558318 13.104199932275717 4.510410539230325 16.435599664219257 14.7038003360011 0.6832101333866778 8.021169343303528 15.64319959190597 0.7199625979212669 7.73207059308852 14.560099587361938 17.69779899358818 8.563669380238219 15.037200234409342 12.353000052318516 9.304349494352016 15.932899674922448 11.926100019646775 9.513599076533264 15.349699370238808 13.205899897550925 8.855159228930065 11.958700085487214 5.393579840924709 9.769030306230675 12.512100613766828 5.114869203809587 8.997169840997058 11.270800267885551 4.686590375513183 9.697110547357077 5.110670548746094 4.828300321179444 5.130569683019469 5.018789387409621 4.500949332608436 4.189800526945577 5.053559944426952 5.842770106346661 5.219549146725197 7.1669494124537 11.11499992048079 11.375999705410713 6.214749595878563 10.926400249029184 11.237100723727638 7.646010617924822 10.251599879407394 11.162300616316841 5.789479210680619 9.186310356151758 8.943030318862677 5.991530590155557 9.902579560890054 8.295610161710016 4.9346899706696385 9.450210059621297 9.349509943560362 7.775000062021603 0.8569223702741703 6.272059458404108 8.215179230877203 0.916500573988679 7.1452694079605985 7.156559520262684 1.6724790927172952 6.240710093627073 8.984180696667162 14.941800030820502 5.9772106856614675 9.565820738431018 14.553200271965231 5.2337391775669 9.59860938793109 15.483200589437716 6.507200153779852 4.020909627016587 0.05897865000417101 8.399759935469303 4.418840718841356 0.6261315527078501 9.071799155659512 4.166579829535109 0.6120927446120789 7.556009955911277 5.883950728700332 11.390499298108791 6.8906992583694295 6.7892092258473955 11.752400236397184 7.0241293139231935 5.426759890473073 12.245699508170478 7.180249897731103 2.232969299144373 1.2820699981842405 4.203040523124607 2.860009967418937 0.9009744457093993 3.5621496304139035 2.815470421014472 1.3704801527288177 4.987580570831745 3.0358802418454194 9.110579784080702 6.221250394862462 3.7336397824817764 8.444970199229251 6.053629765999291 3.524420444849714 9.904780296616131 5.983980127405785 6.916679326120355 2.379160775363574 11.624499596071104 7.433800628105585 1.5474605800195456 11.442299315409068 6.682230697193636 2.2992190945911264 12.573699865003425 6.676459325572462 7.270149151550317 7.543800053495706 6.467610038895147 6.3202799443536435 7.880190604091122 6.227329549248884 7.869820281902521 8.228230643396602 1.9367790916907694 14.567199940056174 11.469300581467808 1.5290594404764506 15.280699099907242 10.937599627683714 2.0082594150556026 13.828099658864572 10.85429902286047 6.681739668042143 3.2711205663243645 6.803600293986629 6.155450709471244 3.8461904245503074 6.22914955947344 7.617479333495487 3.623699067098899 6.76067972050919 0.8493345466106974 17.020799667331442 5.53066948693 0.3829653772509984 17.662400417402456 6.078149199933636 1.386819325653867 17.645700088978302 4.940689065955273 5.961360762796784 1.5196000129456921 14.195499767831462 6.440279640977617 0.926038281529096 14.795298992744923 5.310880568902934 0.957464147224661 13.62179980977454 13.699199169324219 17.122999557213785 4.396940107048308 14.623598907923876 16.885999711608655 4.435809690025929 13.239999737212774 17.54630048853237 5.149890612676049 12.481199579954199 11.468000065852802 11.282899866651151 11.970899313356016 10.800200419822046 11.765698942583459 12.959598963525481 10.871300017685359 10.645099255230823 1.5696600791221986 0.9050254362092183 8.970869536842986 2.501889597778818 0.5364155452748818 8.839099373312205 1.715540214393895 1.840699275290804 9.25890972783648 2.746500395232091 7.60260968984266 16.91750029913162 2.6826505937178173 7.7039307087074755 0.09782332570599206 1.8255503143307874 7.820130266680763 16.719900205660437 6.432590409119814 13.598100536850477 2.1440094054410586 7.298579027785323 14.047799622335209 2.032880257184278 6.024109306902455 14.320600118721126 2.6116097058617482 2.7986793589427585 7.307200503394511 12.667600294770857 1.9800697161229583 7.190330228065743 13.213699433058702 2.501240229516879 7.441429370865015 11.708300125501482 13.194700518896397 6.015569669485181 12.0494995594175 12.78600058847022 5.648359923269052 11.212700488898909 13.590199593148371 5.284270702892484 12.609699773990616 6.449559380304387 14.530600477358645 14.361198978275747 6.837669889099292 13.713499503815894 14.008999423911602 5.778260262023676 14.696699983306862 13.690200526395767 0.5026056974669946 7.076760166780525 14.06979986323146 0.4431662628605166 7.390780425524943 15.008199269922057 0.027652413411807485 6.177579044928753 14.064599579862564 7.00983965397829 5.831109943089825 2.37093959525832 7.018840075997869 5.708779637087388 1.4292008345193419 7.8731098213993 6.015779602238356 2.7843292098994827 14.530899364668247 3.057499757240149 9.419209396705467 15.433999824276324 3.2970508195236885 9.62838069887706 14.586300262412808 2.217749174539212 8.933239980381998 10.752200541172456 17.706600157401358 12.151799078403046 10.513599513551588 0.8731476813669892 12.15040071277597 10.653299086242534 17.226400333607934 12.991800512953116 9.70159029881889 13.92910044132624 16.850698985435002 9.254319672724694 13.05889893486821 16.674198912748995 9.469979320242285 14.07250052356467 0.008518288323729925 13.194800147999597 5.910790097466369 1.741639481250436 13.963499168297695 5.642069057038327 1.1114195771290662 13.564600250898968 6.1175098120627505 2.60964025198239 10.049199798071248 9.47767922664686 16.547600567129052 10.393000263217278 10.113900005144993 15.864299700094815 9.376189194124827 10.057200370876554 16.921899991492644 13.984899855483606 15.590300096288221 14.965999228351698 13.43370006293007 15.844699453131044 14.208099291204196 13.562999068883228 14.84309961318811 15.43140057213744 12.494400436128402 13.55020028730409 16.684099554879648 11.520799932367352 13.646899227416807 16.794799942174436 12.663999414326572 12.67520057207223 16.279699687711293 2.55046946013633 3.2736593293648744 10.322000294457165 1.7784702257946834 3.360530570083214 10.970400730821686 2.84230978978051 4.202759426726288 10.101199073577927 17.622600369764577 16.305099771754296 1.4444796691317463 16.787699589480198 16.087399506712202 0.9728123663910808 0.3950382896496682 16.785699891051653 0.7699070231744146 2.426650054859256 4.948830186959739 16.881100094640495 2.360489213968932 4.6432107965245635 15.99589907087725 2.5997396098517385 5.92190941702011 16.82690008340774 10.6098999372515 16.2182000655779 14.402699837032564 9.703899559103808 16.302000595008277 14.750199032634951 10.840799279376665 15.241600014174033 14.367000594446106 8.004150557567355 4.699640008941453 10.580000531744272 7.5505997397892095 3.911529325339218 11.026100515875848 8.666739245682448 4.273179411778477 10.016099807623672 9.248099970139116 5.975120253585365 3.660689929844721 9.180460704520925 6.363590138788247 4.556780770406117 9.618999551355959 6.720340608259346 3.023109925724339 12.691699863198853 12.607399409161339 7.606669575798121 13.147899747667482 12.771399587577811 6.720959731972099 13.360598987547084 12.300100556700766 8.269539360311532 17.54880011156805 2.432780802888406 0.9743423847616755 0.4430239355702287 1.7512305615247108 0.7494706033802028 16.743499849481296 1.9392004347167922 1.0091093835967486 4.2900505329509775 3.240819086222074 17.728899285607213 5.128310237286149 3.735790703656252 17.666499443362746 3.5714791842922744 3.9316294969101246 17.646100384482235 2.553810593275838 1.0992505938094521 15.69040065863882 2.6097594510880056 2.030350389599411 15.28140006181191 3.4750399914843317 0.818805342843946 15.974500162782467 10.415799316030268 13.933199467286533 3.8911800810103077 10.38169947636842 12.972299895092545 3.781929652985327 11.261100663052432 14.35030026602195 3.5317307302971255 8.602430438656995 3.39118075204671 14.167100136145644 9.368709895020197 3.097869114039179 13.639099691909031 8.560749891696188 4.3784090938528255 14.000899222003094 5.06580009139171 5.6999090887201955 11.869999939088677 4.4283001463721146 6.431190264401607 12.037399960651902 5.961189970048438 6.042069231845658 11.972500495371754 9.242159584860724 4.316980635364573 6.753319620510177 10.031700657730353 3.883830655558067 6.256229105541838 9.248268983796331 5.335120685530089 6.534630180800584 4.87340917674506 8.370609527327217 15.437598925629478 4.1020806597588955 8.141530195426608 16.019799381098842 4.509359096373322 8.694099888149164 14.584900117694602 8.484859201423559 1.1648101018983092 3.5725501971516906 8.81533961128977 0.7978085093442258 4.4058106554155 9.018120418127435 1.9914808066217895 3.4474800908112115 16.494599663316972 9.35339903676748 13.405899984954589 15.711200013023264 9.0934595901502 13.993298944701719 17.03869910317627 8.590969533606563 13.478800023040044 14.328499283332105 8.213969448909756 17.279399458328882 14.628500303983165 7.259389208404553 17.3449998855137 13.498199232706282 8.282489364636602 0.00933133296949947 14.033399658740333 7.049639701616168 3.970589813535305 14.437100343095146 6.592979032545232 4.704900781408719 14.739300320381156 7.593139587765129 3.524359955751341 11.140999558234128 13.788699906730628 13.82310041279321 12.117499980534795 13.708199591343801 13.637599918087624 10.89510069880375 13.015499785877179 14.381000262537048 17.016899899577552 4.357579494919193 9.718909750955795 17.731900612341157 4.264230583401626 9.012030589194241 17.374498995516994 4.002280763809031 10.533399018721763 17.659799386172445 13.87359991447848 7.450390652879767 0.8167522716815434 14.045399628402729 7.146009509870095 17.163799454065938 13.997999303463478 6.5750707012447585 7.648819802816878 12.136699931994631 13.742699726509585 7.51366936614176 11.76839960291667 12.831299806786596 7.215920674859505 11.467099845741732 14.367899035466047 8.259820185475998 6.046230525995449 14.247299785131736 8.8612704069568 6.538949814060822 14.821099372291862 7.414410313894988 5.984170490156546 14.724500061282345 3.1866599940852764 13.678700481340508 3.964409250954553 3.8871700096064465 14.334000233101731 3.7973294657944763 2.38715067362211 14.020499468966864 3.3839807702492717 6.783560611514096 15.573900434264798 10.166299576155604 6.441459178395878 15.822199287627658 9.294950555919629 7.176549388183618 14.638100279713084 10.116700294581406 17.497999943482046 0.5969651327456053 12.61639983118092 0.26742586208642183 0.2511898764468313 13.345400212035466 16.615300321845613 0.6137384039060325 12.97239952419575 5.039969467295587 3.696869527035901 2.5476602752442727 5.807449810170593 4.298259259418331 2.2348106584624725 4.5467502546230785 3.492709924573573 1.742429397711534 5.03184079992902 7.496259180357295 5.535599348447347 5.443960143504364 7.733040197753606 4.6452994495095385 5.792179871013832 7.535159007884102 6.160599399197409 8.348340643670548 12.62459966219263 7.284999225200729 8.608959703098952 13.487999703266027 6.856599418707581 8.197920267838668 12.664999263540846 8.213270266096217 4.272939234476117 13.54849947618515 8.070469737568125 4.844039940394156 14.28009910917858 8.325559381768844 3.5973702974867696 13.912599371108488 7.519940662370071 3.3596997345261586 5.434529181431662 9.580229597481537 2.836360509046476 6.250180195704603 9.749780540219238 4.254659073129766 5.461329410192871 10.062099987844716 10.66300047016678 16.402899969275616 7.379009958618135 11.315099636987656 17.102600498333274 6.995630053134173 11.225300012271644 15.74409896617331 7.881870066116519 6.517010062262944 4.774859981858601 17.709500075940973 6.2514504667704225 5.278839137676874 16.91170046205239 7.233489199754415 4.11377996302056 17.41759925719842 14.098000236710876 1.4907698412067525 15.909300031101587 13.348700426079017 0.8207071912604179 15.997699511099393 14.616599963423969 1.2894407727300246 16.749899240270864 16.623799040166926 7