-89754.08316413364
-89755.06617442338
-89757.32321245385
-89756.27376284925
-89757.18009962268
-89756.15996157656
-89758.08301687756
-89756.75588027078
-89756.39342572614
-89755.6381256028
-89757.02762036108
-89756.79422056641
-89757.94581231811
-89756.64160579213
-89757.03342795068
-89759.32278779896
-89759.31441839361
-89757.96276092855
-89757.98814493194
-89758.75668557044
-89757.51515175952
-89757.96460871758
-89757.23787360839
-89757.79207521028
-89757.78841854451
-89757.75414077245
-89757.99030211438
-89758.20628226954
-89758.08746348979
-89758.4648755879
-89757.99872376559
-89757.62022715776
-89757.28482780365
-89759.49373175325
-89757.39943970347
-89759.35504349311
-89757.56468899541
-89758.6345679546
-89758.22972256379
-89758.40093904009
-89757.08115562952
-89758.71230815716
-89757.81580163223
-89758.19193275445
-89756.93155927797
-89757.21474828593
-89759.21288537333
-89757.37029603924
-89759.02313617588
-89759.62356216372
-89757.37020869069
-89757.95628434708
-89758.33391155119
-89759.12330862696
-89759.53034222122
-89757.77533068522
-89758.63668540843
-89759.2067839008
-89758.38473915088
-89757.83820884627
-89758.01142916888
-89758.54463133767
-89757.6011171471
-89757.10075639749
-89758.34080514712
-89758.62361686923
-89757.58613142984
-89758.43747440464
-89760.69199742295
-89758.96030114488
-89757.61706165747
-89758.84651837594
-89758.05347102907
-89758.07035161105
-89758.1962125609
-89757.01809107051
-89757.96199628866
-89758.65423539047
-89758.08437227659
-89758.3363215274
-89758.26009536623
-89758.20448427736
-89758.94665409165
-89759.01384893057
-89758.87013744896
-89758.669475126
-89758.46645343999
-89759.06724746182
-89758.98539235377
-89758.39185778495
-89757.85957753785
-89757.6169156684
-89758.85706646071
-89757.45547542599
-89758.86106027554
-89758.9798673544
-89759.55531057071
-89758.33983995933
-89758.56365957813
-89758.8286724701
-89758.95333244554
