0.7461279667575794 0.20805701024536424 0.8769932610122896 -0.9322341837634656 0.06904363296222302 0.10919192304633452 0.10143747591189627 -0.385591169311523 -0.20598932908305814 -0.6607627138171975 -1.1255405180622164 -0.20091397144267978 0.5892945305738819 -0.10075536224320712 -0.3263179854725025 -0.20544451232318164 1.0609022132565407 0.5141717812971145 0.718438214151795 0.4567798736412068 -1.0541934337777974 -0.18931803907496425 0.1925468304249071 0.375733816901469 -0.5133037768698643 -0.45978575034706626 0.7200675222251018 -1.1200134175964 -0.3649212996669973 0.1895468672563187 -0.17186821902963303 0.34049453408320074 -0.11883895921779533 0.9403773816958901 -0.09522594778454568 -0.06326199328343944 -1.147423948398869 0.43227211830782974 0.47896180905488484 0.5954474375491552 -0.08832459267902208 0.13704005560685428 0.3713644841891798 0.0945075815612824 -0.36510153399860346 -0.3694865504401766 -0.03512692561012015 0.30905919839205487 -0.011416726477373886 -0.07990500115675916 0.7832780934453155 0.2639167975274616 -0.668019652489927 -0.9104284007422837 0.7233847595237929 -0.13849375733424538 -1.6091830204222224 -0.9393414842322081 0.3168732951198349 1.0106821407587239 0.205387176722685 -0.09763558566730282 0.3960074795488406 -0.28634298774146166 -0.7553435718185765 -0.940631149577909 0.5917895290815938 0.6433938835214468 1.0040625785596773 -0.0836133032462818 0.3157139847044111 -0.04690206386817729 -2.639905110550957 -0.9518576144213476 -0.05728083599934005 -0.014103786391233775 -0.16783467239020775 1.266640088450425 2.01812983374055 0.8542289707325804 -0.8296060299775777 0.7279435825390689 -0.8268379803141374 -0.7488667058449813 -0.4113438527955948 0.7475364170693319 -0.029243470246149636 -0.04285591882326168 -0.10826863990111675 0.31169380780142447 -1.3601513675367092 0.2224868125174491 -0.4905847380057938 1.238893771575092 0.15933177712551916 -0.31297961649238354 0.11694354196729538 -0.10487298395600649 0.7580087773555656 0.05847177098364769 0.3840269101481967 0.20136494293716933 -0.2084169646879443 0.07829343369526516 0.018876782299844908 -0.4614086306624699 -0.24954947306219602 -0.23413313850712578 -0.33233359553896313 1.6445277184701033 0.4285054521765459 -0.5291019202443855 -0.1435104938225464 0.2645963400929895 0.8665795218781333 -0.5043784493557765 -1.1502367352573157 -1.2173497268557292 0.045456075450270104 0.7260731049892335 0.866962616249165 -0.006695409742304597 -0.749602298459425 0.4142150036958027 -0.1167306546255409 -0.3535117722784751 0.7793738732949029 0.08291062075230236 -0.12867857101603644 -0.483910925530044 0.5342924633063896 0.2925403748014252 -0.6826679985307211 -0.3827380161334441 -0.5511203334970056 1.4488672821168789 -2.2496414754644287 1.087726018317604 -1.341186396398432 2.2593057380270705 -0.10809329066551707 0.0897906357015873 -0.08031072123561006 -0.5084569903005244 0.6842713384620989 -0.10279270438821006 0.15085562133370795 -0.03908539603723591 -0.10269063159270701 -0.23940724242187159 0.16952311583622418 -0.06622416123555692 0.07306715229931933 -0.13181788797596652 -0.9287338839196909 0.6766487889198346 0.3534549508986106 0.339337537660622 -0.323971596727513 -0.8048725317866396 0.2146472618683723 -0.09791763568409588 -1.4416062296790912 -0.7146818324331562 0.34787308593545896 0.8287997320261984 0.3707304501496067 -0.5460195219353305 0.4903664513474007 0.3420289684498561 -0.11934546654056864 -1.020161798114385 1.0479032298937114 0.8198558925693492 -0.041449525394038296 0.595662895994071 -0.3432787816965572 0.7397971394435453 -1.6768035477846734 -0.6815146016525682 -0.10681056729835153 -1.2023959337593744 -0.09765229783785118 -0.293489626088572 0.603073072415213 0.01786453898524665 0.12059450845632134 0.5138838177430504 -0.1290359543554552 0.28513199815249607 -1.259893770865527 0.782717335845839 -0.2983415548642346 0.051393009759995355 -0.06908631327470037 -0.0029840223289884092 1.182768903557066 -0.3958935796787956 -0.2501174297505241 -1.471227137869318 -1.9350474632970736 -0.32636426532940566 0.401892734685024 1.0203374044603009 0.7667824097831375 0.9022435509386462 0.41680281902763705 -0.5001860085409837 0.5204666131668907 0.5814094713988504 0.3904945201504113 -0.10296805362380976 0.0074351161218065495 0.3438598510110078 0.1174348797814171 -0.49090715434221904 0.5442822275292497 -0.6320764016260986 -1.1511332789296562 0.9403784101371547 -0.29871924991862747 0.2541635747954397 -1.3447589442410388 0.4305127124145618 1.0459815873909666 0.11722764886661746 -1.229098125640909 0.4063862516800033 -0.23210196700970995 0.198863002450922 -0.05432663846702257 -0.2866934291023449 0.6129057422349187 -0.49428609811678104 -0.4962990147817518 1.4270090485912068 0.5711664535146034 -0.26640562538758633 -0.5973407979171261 -0.4912012885438702 0.784950596051732 -0.11530780613608528 0.028168492014416006 0.19283145154486145 0.24686215603802 -1.460036668470137 0.1826506543571177 -0.10138553962803828 1.151734402848765 0.1603620181622464 -0.0676403248567932 0.6848418662535882 -0.780765868546423 -1.0354200098250361 0.041627188622483144 1.099984523969983 0.7504173381615528 0.10158839966746373 0.38030086744686115 0.10204991268491456 -0.13867604854838053 0.9567149425136491 -0.4215279924174482 -0.6728792945750734 -0.6630607658227549 1.5649847286384533 0.060185925461277 -0.22329953822673157 -0.5671146520427329 0.16242301445633317 0.6385383552013584 0.4944249376874904 0.1048891819059226 -0.04191052419085685 -0.8565583901967055 0.5764367007746073 -0.8608197365762207 0.3356287213504672 -0.8731857143407414 -0.795483634372572 1.278082783069728 -0.516800220058897 0.4201516808952119 -1.4393793972311015 0.6542583370397764 0.1312818129668384 -0.03923529135153888 -0.34114168074889634 0.5703393296276178 -0.29773323185627437 0.9735908923333815 -0.37882299734975405 0.5680191661348734 -0.04687892393972571 0.011184812972225898 0.13589874291355952 -0.5992940649887549 -1.7776005618990935 0.2591980518955536 -0.8879065654906838 1.4403548737704934 -0.5346943267304985 0.9794542930926938 -0.019944561442726945 0.3518194721777167 -0.33256268083063373 1.7665299059072286 -0.7037420455922009 -1.7271580889778255 -1.471733388081775 0.4514384068236354 1.2316301480341434 -0.24929853339365454 0.041298858748786936 0.3740523154339881 -0.17829674826379616 0.26033627926505487 1.3167565454908419 0.010794776622658828 -0.3733712302065634 -0.9775444776644906 -0.03597487543271223 -0.11870449052246008 -0.7377880794333165 -0.7680196246243483 -1.321639584614756 -0.5046219328251502 -0.14772144658010042 0.34622089504401665 0.10558749352452783 0.7730163065079912 1.0674698391717292 0.791104788578586 -0.8134900982523215 -0.8989890485570905 -0.33452211854984965 0.24742162808591583 0.16903923422127018 -0.11498179025523422 0.47143104789547846 0.8492592854321309 0.5750740160991257 0.38328180445205606 -0.4280061439426242 -0.8585800486124245 -0.4031374057254025 0.26709519525544323 0.3489025556412378 -0.12402256030126382 0.08724395802033362 0.3252296375043302 -0.22588323979350775 0.037310820635316384 0.9830792914397908 0.26479380081577625 0.0598766217509743 0.525655870677314 -0.38447196810541523 0.3158741644313592 -1.2057216556984975 0.7082738720242834 0.5525863765195709 0.7934100396729948 0.1000357104683632 -0.801190197839046 0.22688314181293184 -1.015261275488974 0.2559021547531012 -0.9358386132852721 -0.13020914872794992 0.05178510299209146 -0.32118709200384044 0.15254329344877599 0.05876281986150526 0.0507386640054481 0.25881187220072843 -0.07733132689231198 -0.04401651479026612 0.17355871935817851 0.464150197963349 -1.1773413047835917 -0.3422338853718106 -0.2682665898557251 0.47540108828682 -0.1596667918674347 -0.029206960581259378 0.631849373216957 -1.1863586777908535 -0.6164746905330996 -0.5949699836921043 0.6936401812715085 0.00600789675697675 -0.07463963899276177 0.7175429560310351 0.8685106774625753 0.10718389147737026 -3.2894256757954317 1.8183916277735264 1.0638199011239677 1.6373031756972058 0.2593384341281598 -0.22002009614451137 1.3537840305577846 -1.908464056381591 -0.5923163481193412 -0.3971307945200064 -1.1613117621245548 0.6604768071456625 0.6821733182824897 0.9689071137044668 -0.4347930849574706 -0.237836555500642 0.21715331611967764 -0.000850520925753374 -0.341009011825774 -0.7391749324785141 -0.3563993782389152 0.23249303180054154 0.6371512450458446 0.08704726862849524 0.20431271271158363 0.06925060676670654 -0.03642019050024696 0.4806075721884239 0.12622008217321487 0.1307436810751813 -0.5723938981638014 0.129837367210828 -0.49059065154306486 -0.4894002307793894 -0.3741857556880588 0.43685382414124124 0.6389661867673964 0.2441164749720828 -0.9200600102947768 -0.5781421135014881 0.3592327339226523 0.4654167233805984 -0.09332204589361347 -0.10358640393409903 0.2977723126243259 0.48127477345877756 -0.2778213234236957 0.12529371370420356 0.35520432948954955 0.23261567342133485 0.05464751214155105 -0.8187096947800481 0.041579623213999356 -0.022365769289709868 -0.8794424938837305 0.687660823759622 -0.5146914012460104 0.022501009315993508 0.2823590633930492 -0.22485068476393533 0.6206311359036344 -0.8115430018282798 0.1415965646292852 -0.7632787675052531 0.3161410449395007 -1.5605305495218416 -0.0822858426841099 -0.46807704382158094 0.7405571575380214 0.5018667386775164 -0.1462615742051223 1.028413496600216 -1.6723195438713907 0.15849925392189476 -0.8443736752050556 0.369231497006577 -0.24158522390979686 0.2968032638428372 0.6479542491986197 -0.3140494525177946 0.3956218140746477 -1.2995224410007424 0.48971030582064046 0.32914517050865255 0.522872394394906 0.6495673593220103 0.3227528938290635 1.0523774636149812 -0.5923927098832314 -0.22414620249774303 1.180227110971819 -0.07803580915850432 1.9361291263970268 -0.8928765079014493 -0.28601800030187513 -0.8247294186115667 0.3732717285142217 0.33986255692615663 -0.69407109816134 -0.45250155798082714 -1.4153673505872204 -0.7426873165071467 1.764424943749084 1.232687385654064 0.7834025348383218 -0.8710357578772742 0.16635217430741026 0.2073443004490558 -0.40946026261963675 0.2267666708397256 -0.2119704863671575 -0.012088298623101762 -0.683489723101068 0.036779630722194714 0.4047893395065286 0.6290975215034327 0.31300866995810606 0.2151504267570359 -0.12620568399551166 -0.5305651350534734 0.21397543261232824 0.12622393882795682 -0.3167897342670931 0.2150622379186038 0.27782955095381184 0.7695738564853456 0.937346051068734 -0.668645458999384 0.40816416951603257 -0.6637320808581666 0.3571552825683333 0.0027482521690984927 -0.07799081485318181 0.17367441900043637 -0.06240761570294414 1.2284957161702197 0.33874669815415853 0.3849861887376725 0.035201487601797435 -0.13087763554988427 0.3920058145886152 -1.0829357960178123 -0.5427686190982006 -0.8836125661010201 1.6016054651852805 -0.11030623915643584 0.01571483963209552 -0.34666929543534486 0.37853143425126423 0.14236866690861932 -0.944026291302387 -0.053863325677358846 -0.4296920162854793 -0.22926064090617293 -0.5933612444440878 -1.635022092972513 -0.1409548172802282 0.49447635975071613 0.38713485964955907 0.38058086058112517 -0.005005680744707508 1.213446535146581 -0.23878246435367909 1.2015001614179823 0.14395246645597143 0.6462665770835515 -0.7262384269225041 -0.07192712515760516 -0.4686126046100768 -0.7294926721937436 -0.2993327151329103 1.027783833436017 0.23541020544733648 0.14997270450812233 0.5822234826597135 -0.2868376679896931 -0.3629073545607621 -1.1727603702811287 -0.5028486429748114 -0.2607407137923251 -0.5322849459580574 -1.2044304476909 0.22095057837858076 0.8359157742456893 0.7884604089772034 -0.04723193640377026 -0.4240872685041922 0.7231263636560836 -0.26348948018205587 0.3028286441013107 0.1311483727127677 -1.906413344500149 -0.5350421969882205 -0.20291146148868278 1.394663542380966 -0.00266674819888573 0.36633077842001427 0.11333654134232739 -0.08610778753336139 1.626762424066882 1.067689154271387 0.2914075467485627 -0.8502386186262647 0.1043399942706719 0.12172862206076455 -0.49624656427726144 -1.0085311558539922 0.6991680530682732 1.0876396292513848 -0.2688710562089434 0.14151197533527887 -0.3677471991515666 0.6139699218333748 -0.45876810771582927 -0.458123789263611 -0.4237517395416444 1.5498962097364468 -1.5166878413052782 -0.5556200211395722 -0.4992424136807918 1.3191217032889089 0.5846904561429672 -0.6550484370412396 0.19650812906550028 -0.34368835843015005 -0.4737324423351454 0.7030815291900666 -1.4423801317306386 -0.5957397719785934 -0.22954526202612727 0.8510552009902892 0.8211717831672956 -0.32296012474386315 0.9294617632246508 1.184133902225393 0.8487445505792414 -2.2226880868040366 0.4848077263127006 -0.03120033686220433 0.46734350808966607 -1.5583050026254324 -0.9906627602140036 2.16588984686807 -0.20724094210197214 0.6261045003133797 -0.30729619295436106 0.1704008904554872 -0.39757251004311533 -0.2237973037987565 0.32809821730137684 0.12317769580246528 0.7736444270102933 -0.31808068516437477 -0.041596849605179974 0.10250319817224927 0.27822087285495956 -0.06538418183276481 -0.02077451354319003 0.3847704731824405 0.020327912924074668 -0.15905924019042283 -1.0346054843435408 0.5128042115256265 0.5807373850324902 0.1667172709563129 0.0988450325943717 -0.22779331233202704 0.7100317352556547 0.10560317725381169 -0.4933206488797181 -0.5146836879365264 0.6682027150350105 -1.204417335064777 0.6416995265381594 -0.3847265073183826 -0.040862028321684465 0.2311339466694858 -0.26870496294472435 0.850019046416291 -0.469176704643663 -1.528322340220413 0.3025144552950016 0.21665709320954943 0.8545004792264121 -0.711376165098691 0.1830113801306461 0.4663886003755645 0.06652678007764026 0.12494790032901062 -0.31884610257548957 -0.36184163230040906 -0.5303915855900866 -0.372668547712584 -0.18794018489083117 0.2125839515814403 0.6120431371243072 0.9593531514674447 0.43609252049518443 0.30915947141534494 -0.9444872900992055 -0.15643928606907254 -0.18911877857996462 0.0331749440900719 -0.5142229462500241 -0.39105630619115234 0.6008866062868555 0.4027532829131063 0.22729040455367952 0.2567866142405836 -0.30240081253527273 -1.1865553671826918 0.1351585223134253 0.31164444262072777 0.7579429571146366 0.14322690114385656 1.3092808059390872 -1.6199387162768295 0.2462134667104276 -0.16413151250700767 0.903632975087005 0.6692452973669119 -0.5594257680389075 0.13345208114527984 -0.7768989293918491 -1.0921956240531836 -0.06525922621912632 -1.7383891818069546 1.449079655238001 0.4496615174288707 0.4562576825891497 0.08914168926367874 0.15504651948660395 0.9423396476285835 -0.30407665757579894 0.39886706048482273 0.7171902006773068 0.5348534780161821 -0.3102958990126334 -0.872827045449742 0.1634725387667701 -0.47612048295134773 -0.034599592351740406 0.91517182896454 -1.1017387876569282 -0.7468278210380815 -0.5841394687355036 0.11715282976462403 0.9669978124968959 0.051405865275801786 0.8508592829293993 0.21173625886916436 0.3726739470292227 0.6747726549430444 -0.02830578892322867 -0.18753112237787056 -0.30949551459852503 0.3508213699305055 -0.30498014322667477 -0.8104862784289912 -0.4729436278852629 -0.28117018529127064 0.8104654524933849 -0.36724686247638044 0.20357969120030098 -0.8217019446391526 -0.0674174102127097 -0.5085420938151629 0.2238592673849435 0.027507975612281656 -0.6543498683123182 -0.2825848062506101 -0.16989335469144934 -0.09864937164379786 0.25084736593801316 0.14248256677866428 -0.027040034836927625 0.0873804835981979 0.39698141342633564 0.4511530143727327 -0.8788459979503123 0.1775138473511846 -0.09074142965063083 0.7795985877111993 -0.08085450955422205 -0.2865993267266419 -0.20294694271230854 -0.23055390579629972 -0.44728581810784257 0.2993016047846587 -0.24060074850934052 0.1652424861829993 -0.19509890742279948 0.24028218882765714 0.19496289606556746 -0.1287428485950686 -0.07326435591178995 0.2180912545529147 0.7491698389076968 0.8157845507134531 0.1896499684930863 -0.5480892599801658 -0.7521296928669691 -0.17311674672475347 -0.2367780323291406 0.1364337894814231 0.012752928790294164 -0.39839500594441063 -0.20045657219028704 0.060558735419663445 0.4224597602030982 0.13470960770146476 -0.04895406130119956 0.14769676398975207 -0.0849837012312472 0.7550239836956287 -0.1927383776104229 -0.05583227647827159 -0.9405193065903932 0.12103416709690122 0.633542958869296 0.21319767390603928 0.5226471657579773 -0.526959419980086 -1.099834371545364 -1.8150368523686804 -0.5831837896904537 0.04953847304975984 1.0852811563215372 -0.6065453472345297 0.9154711053725136 0.9587926509782843 0.7118657031405998 -0.5326014487572118 -0.23970317639573557 -0.49299026212349295 -0.3723132212556942 0.741913928676232 -0.6061231720954463 0.9465462295107633 -1.1517295177527582 0.33012630347499916 0.534173421230022 -0.37414513225811047 0.4045039470556259 -0.28897579737861845 0.3285049658214923 -0.15028740753506373 -0.7903596828824453 0.0700263085904665 0.15663031903395605 0.6798377281707776 0.002566218065279451 -0.6238807531891837 0.08241414073185807 -0.21725513180486455 0.7282554573525328 -0.45031380630088896 -0.30691489835554236 0.07718451690180254 0.3363938816512658 -0.7569273713659287 -0.4985286754432188 0.13251157160888144 -0.08634150081072227 0.4152688988816139 0.01123392104260646 0.7909834325093733 0.1567899845402719 -0.6510832817459045 0.33522402971288073 -1.560269839661287 1.0916492646314102 -0.2976656118431325 0.7141740395588023 -0.320566427700706 -0.66462245388292 1.1400412827815527 0.3027003460535625 0.2547202186298581 -0.14231004575654202 -0.5511087635327799 0.1285970670458237 -0.24800655405510835 0.19348065509308612 0.013902983234337345 0.506578799441205 0.08134713291992442 -0.6771324134244726 0.37748396682335633 -0.21693348679938768 0.3702375696735882 -0.44885727636002054 0.6106143750975805 0.23750771140631352 0.4794498044348968 -0.5867149427721637 -0.4928917888724157 -0.6327878258708263 -0.26040184239566766 0.13862591203673547 0.013854132274272913 0.0976957494812769 0.43542943298988884 0.5562327150229065 0.6969412206202835 -0.8910967902932072 -0.4402093708770354 -0.1729982188690182 0.312310615449817 -0.24501738951979737 -0.13513872481908337 0.4210309981763717 0.8908689905531173 -1.5701516175513732 0.386222889358251 -1.2748496208444107 0.6555114927205872 -0.5459462454952341 1.320745869155893 0.8839866616109873 -0.10963980921703054 -0.08754220598704279 -0.2182979712470821 -1.3546072977900283 0.3142643967420781 0.526513590691919 0.2748756105318105 0.06766449322650928 -0.27412433418808274 0.8668883113678038 -0.4181071396613573 -0.5753648078666672 -1.4490557439786012 -0.03620036117995701 0.9273938249520286 0.9190997032640366 -0.16656840408327442 -0.34380611495493696 0.6691267695111766 0.13608154834832692 0.6125501586677128 0.022169851228819884 -1.0801728885606945 -0.22317998192973176 -0.5813999583171535 0.8981467551614533 -0.2873248920387568 0.6607534578458168 0.5690146972789233 0.5715392634729899 -0.5676121605044417 1.0320793754875772 0.12852867570173349 -0.09833158329306291 -0.46019506997034293 -0.1181858990148287 0.5602138111578416 -0.5655753325800712 -1.2206916467447688 -1.1234311850286975 0.23373487462744258 0.49420228015372314 -0.294831227718131 -0.31987582939158454 0.2859886897258365 -0.16505428143159318 0.25121863323450283 -0.6416182796782628 -0.4701691504639193 -0.6099317472082592 0.15004032452126417 0.049258222805179684 -0.22864563302999333 0.4313498636038765 0.3441647838459363 0.26864917000612437 -0.13711718870169287 -0.44121055844804014 0.039974483510408575 0.12330830784305861 -0.21701756187276172 -0.16954702709562414 -0.13175335328661825 0.30924637470219646 0.29275351925349585 -1.3365661240176012 0.18636512709422742 -0.11205253242358122 0.010461047432323919 -0.15664394588071087 -0.13504822198780614 0.38704487103891405 -0.09842722833066274 0.10607651734580441 0.3079860199325341 1.1235044614687941 -0.39598305406880835 -0.07657387990099715 -0.12454526557395323 -0.012060530708959873 -0.080860423091493 -0.8159573288458913 0.8423648723051428 1.8271408347210663 1.0900513240166712 -1.0486174823519165 -1.3005933054674184 0.7477415911016025 -0.261350322351866 -0.5495822995859245 -1.7607554653172965 1.122588120302112 -0.4094510066482561 -0.9158837674299002 -0.6149469410346635 0.013108769467816132 0.5716559915565123 0.12834612737728218 0.13554110246382464 0.6193738664577656 0.24410439078722473 -0.43109146773616724 0.24139187695206815 -0.27770973754649597 -0.06207388651260922 0.7743062289640084 1.0004938873718123 0.04403091296796933 -1.0220456454006592 -0.5123388418534338 1.1217715379380875 -2.1727914590839092 -0.6348169404857131 -0.4596839346618793 0.21087802463392716 -0.03721903225245848 -0.5069762919899398 1.5281912139591873 0.14905224957638202 -0.7869632556063867 1.0782689866697623 -0.03554884363888716 -0.3673165393720513 -0.373216449796254 0.41620812286643166 0.8812831466368952 -0.15443562537548242 -0.27510649559569395 -1.032242897648635 1.1737242768562948 -0.26219030175465813 0.05617988962567744 -0.2448312416509203 0.02658314980516712 1.1017745259908702 -1.3705933888056394 0.21938143411924796 0.8717759784774084 -1.5941081283669707 -0.8259290953466226 -0.6428724638003379 0.44318799388938507 0.567694692915919 0.21858619191146225 0.409880637986507 0.14536374498120125 -0.21449273856837897 0.5807733804767481 -1.8685443373685175 0.23069403091858978 0.5450481591609968 1.0403935517802276 -0.2903827050284741 -0.9923085233475427 0.8259432364140098 -0.26803930433626744 1.5109640514476235 1.0904639860740575 0.4347815149932448 -0.4357911872046817 -0.5634402885149393 -0.21068570611746296 -1.355800546767181 -0.1861255002795956 0.3171471176065119 -0.1437658043664621 0.02740795969930764 -0.20969865961384532 -0.07597609841599819 -0.536414908966031 -0.020240752526907078 0.30602349688952457 0.2676001599163198 0.3495910970678302 0.08077223425306089 -0.1930026870154031 0.3049495470990555 -0.505135125016143 -0.0374602017289871 -0.1979158080463043 0.5498882608621175 -0.4972410669800468 0.1520306154784156 -0.367843872630431 0.1525065266735696 -0.3286299214351308 0.3209220112679118 0.03202077588097066 0.3883990710739633 -0.09805673236512145 -0.30154643495477745 -0.4970536335595891 -1.0196776593891146 0.9177737853637613 -0.01073435569836861 1.340270569452382 -0.1684064857332777 0.6350979620612416 -0.3529301887433922 -0.7291203764559895 0.5042192980700929 0.08229407021422602 -0.06850601529119814 -0.14495905334361486 0.25079337277162617 0.3341472517089342 -0.10344010816422186 -0.40784252451055564 -0.0702062858117565 0.8289640255182046 0.32194736720863265 0.6248734561197561 -0.07248736853644934 0.26104358974472464 -0.6423662135878808 -0.6271835923101715 -0.11440997691216426 -0.13388659757953716 1.3281712150856866 0.6442192076362195 -1.1923804585049014 -0.4175481818340938 0.43816020165749053 0.8630992766390166 -0.6655542216685698 -0.8253809361526366 0.6145353074185416 -0.8542302562841612 -0.4991956196032564 -0.7973492268264011 -0.35049766804249965 0.2825693796316424 -0.4318178043792305 0.8666579405245526 0.23149390111206583 1.1168455613913797 -2.0663215629544283 0.19868585344310943 -0.7972738935037753 0.8551329706040885 0.45634767119979475 0.781567538512112 0.9350536554901315 -0.02472784176398322 0.4171689441178041 0.5613800635518009 0.017161085160318834 -0.6697494906968401 -0.7317133339941463 -0.3722977946367265 0.6403406985174198 0.22259736995338436 0.5517847065538819 0.03188065075868058 0.5310454171240016 0.6171454913478791 0.5281079317622325 -0.71345361645301 0.18393003529017354 -0.2696498433564969 0.15385044229597375 -0.6755391007954237 -0.1203386836917734 0.0924329584204408 0.3446952024281096 0.7114486702078392 0.7549357948571966 -0.11315476434882449 0.3117498578503405 -0.7085494942831733 0.40629497751777777 -0.6815634526126326 0.856853295729305 -0.17056158440306754 -0.08429541691497096 0.22158795485226354 -0.7404543134115699 -0.5944557630598472 -0.9235770223090997 0.6862778273691665 0.8712697282649511 -0.0060176669489896365 0.48927013295942834 -0.9082923282358875 0.11237649142190323 -0.13068248881994265 -0.3157574363478368 -0.14253681705536742 0.0604494635353088 1.3136208280753376 0.10320562355591258 -0.24105943331331392 -0.10383837204390504 0.09451040977475982 0.1369662649461254 0.6177396732884523 -0.07066857016015572 0.6886483844838721 -0.46425792718580694 -0.7236374989645473 0.16917113181344415 -0.2730784094220716 0.7405846683418471 -0.6850668377802008 0.15586284474031223 -0.34852408925589656 0.5956924636804256 -0.2036933339600298 -0.44119307494654336 -1.0036972248004585 0.5936967734066356 -0.20284538413743772 -0.04991282567004307 -0.8388380900988069 0.4236972321546251 0.984701400424246 -0.05825631253873193 -1.224537245743104 -0.053379958283037106 0.7730034509921848 0.5105704370991013 -0.24394138284679923 -1.1805672679200572 0.327434615575449 -0.2843352132828135 0.06298611391423346 -0.8969396222272294 0.03531564458215854 -0.005746672675790103 0.7271305997194702 0.48939148902864105 -0.06832475251832748 0.09515884199203611 -0.5935327370249456 -0.19535936017303776 0.010875252151607078 -0.2556311604799017 -0.6908541338859392 0.24691460654251024 -0.37066720101183903 0.5633765251565394 -0.3114935188651603 0.19419310777907847 0.3783216322333033 -0.6229888375025336 -0.7878109483186626 -0.2868962891417704 0.24066425475742426 0.5048003673845436 0.23504742279127905 0.051189635499937644 0.15365915222077406 0.06347359507361328 0.6251755607412072 -1.5476405809330507 -1.9754592914552171 -1.145360638111937 0.784026541575566 1.662967927453162 0.4960992400661198 0.5472595649900188 0.259344861886063 0.31335705443646034 0.5735465237110058 -1.2820664503078243 -0.43543251831368235 -0.6016749065161058 0.1703921487047388 -0.6325137462738333 0.3424097488280426 0.5218516664398755 -0.19532053651530235 -0.415741210532342 0.3109613005107741 0.17463832557560247 -0.33175741132051895 -0.26141151460710466 -0.15839178180975302 -0.03024594336873501 -0.37756675634514975 0.1850662057771458 -0.23520348875316913 0.22548934678919874 0.21100786534357208 -0.045513668161082904 -0.1433523709781273 0.07856314241688406 0.15184626738175136 0.06650698258329836 -2.1082724534649175 -1.0349695525511788 1.634447451415966 1.342907492854597 -0.19726968982187315 -0.8179630464220107 -0.13610263139424947 0.1548320894829527 -0.23825718797782838 0.8078357281800216 0.09104096316892062 -0.1506951844964437 0.1659060879089272 0.14694265943254695 -0.4320623162898688 -0.6412017609661345 -0.27674274564753626 0.8321295677303798 -0.28188752307326936 1.2023802500300906 1.6624693905501886 0.040474305964962556 -0.8505425230199287 -1.8852107422806048 0.05887106330459538 -0.2519205443975339 0.13722208971067335 0.2680040802229578 0.4627358341143256 0.1662894393902749 -0.17764085984735212 -0.3576355646388615 0.18161629955533237 -0.3442964243277941 0.12996669369984068 -0.3073807822483674 -1.4157669000184845 -1.1042810944628079 0.8470057135112639 0.6583273649028275 0.7160190631873411 -0.3076227230558444 0.46808912800643904 -0.2878493970836591 -0.3459660987207332 0.29669322062753417 1.4363812338347264 -0.7533800203343025 0.024631682505751124 0.0998477628272732 -0.1492833917505816 -0.152489300282389 -0.712463998846231 1.1914908568110965 0.771898133743148 0.10301150526723549 0.2404230852808956 -0.2665321236631216 -0.10836479915934885 0.6744191282583676 -0.24845186912264308 0.052063810574774855 -0.8351081907427296 1.6012110579603391 0.12061173484750197 0.3262295395237543 -0.40483227692932217 0.23321782578170805 0.009266770013906621 -1.3999160490291567 -1.0066223688670535 -0.14286643248064426 -0.9013506068107315 -0.07261952323893946 0.8577238712597164 0.4222229616019438 0.2522511882640753 -0.12775245965734128 0.4600706285773367 -0.6048602462226228 -0.42917368188816407 0.8919763646846831 0.8205840289846255 -0.16469895497470344 -0.1600743117184985 -1.110963648689306 0.5656414099313162 -0.8516221292373527 0.4386767362825929 -0.2689924122781561 -0.6431234034688795 0.8041721632855053 0.08685572144297946 0.4826001771384205 -0.3605491387412307 -0.08762448128820394 -0.21384379213047042 -0.6912670530536418 0.5883049129671029 0.41266411426891514 0.6647101285007196 -0.2642739237565643 -0.36582452820755706 -0.004884581785810942 0.09749417499343209 0.06666716231024648 -0.8034602248201453 0.4472361958168297 -0.5043355119329831 -0.22699601324171229 0.2010237575476667 0.3696757836328472 -0.42712271289640635 0.3990256975498741 0.22505303058272852 0.6484985517378639 -0.18018548064607676 0.9622345867802977 0.4567184242756522 -1.5894796284560238 -1.1597441605271188 0.8612357410677167 0.8439358163366886 0.24700973735947782 -1.054269024210739 0.5300573421791195 -0.5089341870472589 -0.21046639101780526 0.1418649877993234 0.14142995714443385 0.42438371669868846 -0.4500153012238637 -0.18712900184344544 0.060053256538154645 0.3270929159653141 0.5590953812826822 -0.047425540471815096 -0.2974079873063717 -0.43366591333156285 0.0016791874746358176 0.11835893425758326 -0.4269028835761164 0.16326967872734463 -0.08578100032156194 -1.5400242020383734 0.3077415080218958 0.031033729377353006 0.2040427468796486 0.6732294788256405 -0.32564795598867147 1.3728641871176872 -1.1385652124566585 0.05370674549483654 0.6683109584781006 -0.5813693621895343 0.5838018828904268 -0.12890045721885543 0.6720837952569716 0.05072503715869329 -0.18687163441700075 -0.03726376944746485 -0.2509766924270258 -0.0009204549317403504 1.1942128837279498 -1.7687045449610443 0.8446580392146937 -0.6374330379523215 0.7860831669942784 -0.21749707261234152 -0.8787652653110478 0.7589184336540284 1.1369194493231194 0.3649642370897908 -0.157192105074697 -0.6599556445348699 -0.28751721055522095 0.04400057395066615 -0.004168786665708949 -0.17313268756435343 -0.3423832664654813 0.5218498666676625 0.08690405818241163 -1.5356396998174329 -0.9429500275190728 0.38105728599691147 0.8825067346313512 0.441546344520904 -0.41384810727468724 0.7457587563436189 0.3062248142670533 0.006428015013530865 -1.5112317032867133 -1.0245573560789192 -0.005511416736532443 0.252364573913488 0.485884504316647 -0.07225725480351428 1.1569452576257429 -0.6181019417238774 -0.7486849288514783 0.6026925491473427 -0.10750836469632452 -0.028722564745673113 0.37321850667878304 0.49828107820878703 0.6948102903202098 -0.9886045921333942 -0.27887059062381647 -0.086042