20.407098315288923 0.0 0.0 0.0 20.407098315288923 0.0 0.0 0.0 20.407098315288923
20.717765554060286 0.0 0.0 0.0 20.717765554060286 0.0 0.0 0.0 20.717765554060286
20.540279518378508 0.0 0.0 0.0 20.540279518378508 0.0 0.0 0.0 20.540279518378508
20.57126813569969 0.0 0.0 0.0 20.57126813569969 0.0 0.0 0.0 20.57126813569969
20.459409599043504 0.0 0.0 0.0 20.459409599043504 0.0 0.0 0.0 20.459409599043504
20.497247356972405 0.0 0.0 0.0 20.497247356972405 0.0 0.0 0.0 20.497247356972405
20.378148088574317 0.0 0.0 0.0 20.378148088574317 0.0 0.0 0.0 20.378148088574317
20.467736731594155 0.0 0.0 0.0 20.467736731594155 0.0 0.0 0.0 20.467736731594155
20.313878458265364 0.0 0.0 0.0 20.313878458265364 0.0 0.0 0.0 20.313878458265364
