-134616.9695156085
-134612.77174793903
-134612.08443763517
-134611.40234334546
-134614.37223010772
-134614.40900071472
-134612.23435576132
-134614.47091368795
-134611.65802001162
