20.66652003320333 0.0 0.0 0.0 20.66652003320333 0.0 0.0 0.0 20.66652003320333
20.584939428877504 0.0 0.0 0.0 20.584939428877504 0.0 0.0 0.0 20.584939428877504
20.703300495069943 0.0 0.0 0.0 20.703300495069943 0.0 0.0 0.0 20.703300495069943
20.73972217478929 0.0 0.0 0.0 20.73972217478929 0.0 0.0 0.0 20.73972217478929
20.631934598396967 0.0 0.0 0.0 20.631934598396967 0.0 0.0 0.0 20.631934598396967
20.6655934439115 0.0 0.0 0.0 20.6655934439115 0.0 0.0 0.0 20.6655934439115
20.838150193897466 0.0 0.0 0.0 20.838150193897466 0.0 0.0 0.0 20.838150193897466
