8.744438622969026 0.7219270111038653 13.859402331186851 7.778382144016937 0.7477064281932831 13.965318246357016 8.898032199855793 0.7101760278129859 12.878899954731551 17.120310527665904 11.062395509893111 2.1234642668916086 2.4650405100003936 10.448062535386109 9.305327976670165 20.515406438720547 17.718523616547007 15.107226144271634 16.997489399108577 2.9311118697891954 3.997710968702819 7.052821958691235 13.30928023442301 2.843010494887649 8.50646364478669 2.6797863196654097 4.403374090434567 10.177930452032108 2.6971875295333665 14.877724439302911 10.9637955428147 2.265835923400347 15.211240739598747 10.864596246655323 10.226290108909804 12.614926494347444 1.8677904809528374 20.088787465675132 9.303385323787044 3.2745067666609016 20.23994239319798 17.601737111839377 1.7630814905526093 19.321852907242956 8.71207485259703 18.28615025577897 9.311259267919693 18.25273249288528 2.99817472729694 20.660671408033934 2.293611726324972 18.537021142462024 10.243277988377097 18.296628181435803 6.728750258050573 14.225737065295414 2.9850101540357894 16.399689640628136 3.0031553586249418 4.782232735683251 17.22389112607232 3.753701366670787 3.559725409639141 7.947847608289203 14.120131147925743 9.91542431457036 7.140489336672082 13.49540291384204 9.997181067821712 8.237860883915147 14.560762021553673 10.68599618052838 4.814803171255579 5.7999348481983155 12.024752681759258 4.172343062983387 5.3277668649997185 11.515136964260497 16.14137880673313 20.559756790711802 6.673343317841555 13.537769279910108 0.5766558418344693 19.356241996578206 20.404985222183143 7.597198762885843 3.5683020154529204 14.065034205517223 0.3876129831347484 18.55801832681576 19.279383208574725 7.850012302452019 13.863886966034057 6.0819708470914415 10.997130639628256 13.274395148606965 19.067696043874623 8.7115581895962 13.43243202730087 2.3425087127235313 0.6536365623061482 18.97353937860335 2.676872340340728 0.8054445518620467 19.83665592127005 20.501911201138867 19.897250158007402 20.446896924810478 19.014087090908493 12.208912041775132 7.842903019560597 19.306642348498517 11.296092518428575 7.8285191216174885 18.172691060796684 12.161647710459196 8.290519176959748 12.867843366513789 2.2480420496517586 4.877154062195753 12.19888877955903 2.067292665441362 5.591368328023227 9.150701073781736 10.855048314399983 13.344929981480288 20.388906669597308 17.27944273192157 15.96738737457359 0.5330908176044765 16.75629044380106 16.162148659366498 18.57209222695837 12.924200966644332 18.290510891505978 10.020740900659563 9.56097282948089 2.6019975382604317 9.9093483576806 9.907963700838373 1.7027600518796955 5.374183868994294 9.927286897069418 2.8608043686362374 4.318186694857703 12.885905905022806 0.5745437234870758 3.6891184915670268 13.083622502180463 20.491763939802563 6.505117844771279 17.796457063592218 20.589433913479482 3.5723113203393617 0.39276307992702264 7.482148245861 4.224670691707458 20.58961991215978 8.075504702534301 13.005131059094357 15.384839507877654 1.3006495049416549 3.7962123983790863 14.899775616178339 9.890376492290118 4.331309935078787 15.434976485478208 9.241675094967897 4.297644173944699 14.053605619938862 9.976287216068144 0.41441952626981643 15.117166740407606 4.574410210229358 5.831306625608718 14.310697129151912 2.5661824590428908 0.5862719736059187 14.177108743657286 4.560108978366381 14.721402881771763 12.44037706614701 5.341758099062197 14.512733028996507 12.803198491849928 4.460641017446574 15.150853168061726 13.111646303345488 5.952619098203622 0.10272913778104711 5.975662268040643 12.456186953972411 12.396254045876121 0.5267957956023629 15.735467686760984 20.193835387003904 6.548372871200774 13.02953821925357 2.3350274324715117 11.180318673202569 6.363717514704102 7.538423179911413 17.286903345653556 4.1244174030263885 0.26808816452271694 16.03744687748615 9.200590053141891 13.385601692905631 2.399837639295637 13.104991683894797 12.938068201586614 2.0663399388678316 13.958870292106658 12.667192123511416 2.7223593509338087 12.508018586215684 5.407746297528216 10.164228549250096 10.504730133317153 4.628556492716351 9.531605704513709 10.393978252459217 5.645204612709722 10.053270003191827 11.439972830899737 11.269825371466373 7.685341470827455 9.63090833327325 12.018263394468832 7.527924587734545 10.228129429192759 11.275880661836101 6.9662085732320795 9.00419611326636 18.39686080359684 18.44499312875417 2.9989807215782345 19.043164884595207 0.2595508250970006 17.207977905646754 18.775471450605124 17.797945053034606 2.391219700441791 20.17779816745814 8.858517813552309 10.520250689862088 20.2314277869443 9.127285906584117 9.61555310888858 19.461351917467077 9.423643803860253 10.820762557664898 18.127968711444833 2.67811233154272 12.117070026747577 6.60454447265102 3.7830064920778694 3.2836413685155774 17.9952483197916 3.060649617357314 11.231984973285579 6.958293296059362 3.985559054923295 8.683823719711642 6.097429404076277 3.5514588016258593 8.544862039008382 6.770682627197942 8.966025050765031 13.210473602144267 1.9521284825563368 17.27679741735732 19.919735331803526 10.033058146599354 5.352174025158932 12.942015506912954 1.4644771425488643 18.166181106986226 19.997462113648407 15.206074109590444 15.510615948799732 11.306880441885907 15.12776866518464 14.582048537187871 11.091204638819397 15.296510801255744 15.974909987865678 10.444797225220864 5.5062429320064625 12.80972911218042 9.865907332570805 5.762735112138549 12.417044565029522 9.02471796765933 7.8199838488437745 16.382371096840313 15.86585276165046 6.583691953937519 17.01073663844986 12.713092464505161 4.4195353091005325 14.93656202183744 11.896020928472433 6.8558906892948395 17.443948231385868 13.55235984305355 3.9590852427607617 17.186505391332254 18.008309560452584 3.4627580976433507 13.473455069566779 15.162901749241083 3.355436859110926 17.083214124206304 18.76807283643324 20.63359826679044 3.276263420863724 16.604680852837483 20.03211986774409 2.581041686946764 16.90136941443415 20.144442404124547 4.141301949893516 16.906308712722083 19.464617227632324 0.23175228900033884 0.8054879515541165 8.541720727963336 1.945368463853476 5.766827083105124 19.83562259526839 0.3053685000106124 1.7385089982331305 14.220136438366415 5.323447562312779 6.734495550619804 14.496261812530044 4.388122198650063 6.585262609460042 14.764079245640326 5.6801310315658355 7.477663611013795 17.179313442360698 6.2611289092592814 19.086006580624037 17.070318215705583 5.461293250934245 19.493509022638744 18.03015407212768 6.56325276562468 19.430744801297905 7.221212763921775 6.287582054901781 10.60928205816513 7.236629987866544 5.515749531221736 10.035703461163603 3.2516082624641123 10.82987649299954 6.270552842394422 12.914053705308032 7.58446818654539 12.042174558147249 12.541126351308876 8.48052716214502 12.077948304324723 12.932901571578311 7.159626534222829 12.954167420692478 11.198484544311755 15.583920095357502 8.992374863807367 12.811113769022645 17.670453290949776 13.265281213272322 10.424172038227727 15.303888748907596 8.528514821662117 13.90147936597445 20.452621550859675 4.047207284182341 13.388929002630976 0.5148319471551415 4.454337728836447 14.289265947877478 0.18899945900765108 3.2625201850416436 20.265320879798754 16.546173934623482 8.626701458339868 8.850540536819492 16.210735647964558 16.944500441743443 0.034779686563877886 17.237221031493736 8.11937972456479 1.1516273622862323 15.317094655208814 10.052278010230232 2.080167907422048 15.227381291744678 9.778446619790289 0.8945978526332825 14.417853035524072 10.310175513724577 15.409473999757232 7.678438853136365 10.913451900013817 13.187306433187045 11.262612755974786 12.580206740691665 14.514923680120026 7.755834970660711 11.298841165592991 9.895915119659016 3.620629644176991 18.843670966714697 9.45606957379235 3.1795234405882993 19.541641347796073 9.288960092803867 3.573365312861055 18.058901201493867 11.934481322254225 17.529486957803297 7.3245453640877916 11.14979422311353 18.12569539424118 7.485268890386013 12.773686701242514 18.02143280067367 7.603088721095306 0.3173819481059135 0.5897067492354371 3.239167017404124 16.853340421876986 19.853457802057044 0.2816020019724286 1.101347785697452 0.013081907181017708 2.988213464640936 6.111441304658789 0.8263446035716252 13.397960271885486 12.485306080699194 5.164232691976981 7.121414138681436 5.885266909415412 0.10460359114805866 12.828060315449871 16.959917665688213 13.940787087077606 3.0650929191644525 17.45698880552682 13.445183270161357 3.745951421658336 17.61440568861973 14.474727298655447 2.6309926658670166 12.498160656159847 14.764347910400756 15.692646657252185 2.104161737180597 11.336020235132725 7.294289578759182 7.277839028812752 7.03744606778653 9.996561072220716 11.291628550101404 2.846751135013659 11.162731464654312 10.479310313676313 2.336804753194367 11.351540791677659 11.0485076084308 3.65952403487948 10.778726855917363 13.775351594211813 5.246113444348532 16.755257117799403 14.123768455451588 5.981531559730073 17.358698836248905 0.04609667293406002 4.4043247503560945 13.28908904435057 19.731711332541444 11.359704067090775 0.9128422565185943 19.563527192511238 12.369697567633455 0.75298879071377 19.019481052637158 11.067045476900583 1.4775487164698653 0.4338625883170541 19.469184528559662 19.802576829735298 0.9553264217508505 20.257260936985805 19.598536277447483 5.587214357496554 0.2906580710509783 14.975539078620063 3.4036311838283564 8.28911385359749 0.10616391341056551 3.074310187099261 7.584530186105489 0.6978360487011602 4.258997781482608 8.085920628631035 20.326865776457634 12.282546852653436 12.048725844997774 6.822162928600651 12.58121940017329 12.475530816723488 7.620820595283795 7.828705120297787 5.921970648994381 6.228289808926521 9.406035928791963 6.837228821704858 1.4465489364200603 9.544542946054493 7.777617482775708 1.8181391665730664 17.91944352430981 4.735857064728743 16.36751186893644 4.818192480541024 10.396148237062704 16.13383552692101 4.35830041024215 9.593067935092455 16.323306182585416 5.525049465236678 10.427437348392973 16.779478279278315 14.963015167479943 15.875648692146202 4.1205527637801795 15.485878124319987 16.57217241682525 4.621571208945127 15.647696976179969 15.251106456742797 3.796625728779751 2.040833319842852 3.966628522572881 1.185805653117144 1.6685218281406875 3.627945592268745 1.9990662828557482 1.264069764482885 4.173045724664516 0.6343195660311132 18.998442535243356 15.78081003171383 6.306574586812295 15.498691366740571 19.918991337082332 13.141261426553069 19.387655107028674 15.8967492091001 7.1856250164245985 7.270378415080766 8.526530835738932 9.325353834582339 2.6001788844975104 17.185410065770494 0.9764228054007444 6.652842129968616 9.153098390105589 9.749327493063506 12.13385124101454 18.33711389418085 12.924283632724466 12.694616595595479 19.152036112130123 12.641131641749547 2.886244854797111 6.735942207022127 7.5429078147586175 9.878617242391226 12.454161635009156 5.300053061635194 10.567391022057826 12.139327868823337 5.866646374865496 10.107932948679649 13.16959522551859 4.781096077081425 17.414374441218353 13.924770534051873 19.27155059748214 17.073872857151297 14.904921579666608 19.174128622045618 16.887584845572 13.320605487401206 19.7703990580436 1.7018879247342944 7.47047166204224 16.19990639146716 0.7116619506033733 7.39472886612055 16.336078091965938 13.155273327135578 13.852561713055861 18.896535924959633 14.326155686136747 18.51769794623098 8.003853877579186 14.48113391986574 19.254645384094978 8.610953570074566 14.678209854902367 18.850780249606117 7.097647640643252 16.955288365200776 10.611018045847917 4.805482570720605 16.205589684476294 11.16258679901408 5.046598859947988 17.674565928436383 11.076986073036553 5.1934964843439975 14.090660690358394 12.360004969737881 2.623511385614997 13.521897392524608 13.06353464470819 2.237915454835489 17.702548396561344 9.233263821314385 18.985195295902074 19.808694119665127 6.188072760941907 9.966470619052373 19.714165457033253 7.120318813119677 10.248279286225133 19.00497315557385 5.62164477987187 10.052608674550765 19.537198045988934 7.037404734746464 20.24818833469123 20.160438290630246 7.529681241937368 19.66640512923652 19.519900168721144 7.493556164919329 0.39670831860136113 18.738375047145524 1.8444931129194073 5.683437674771148 13.704382764417794 7.7948946935234655 4.765451521416289 15.85926014175987 0.44361098581671615 9.834204890839871 2.226218204496696 11.324033653513466 8.973093000616387 5.606000224206736 6.015651984304892 11.44972742835541 1.4561092685874204 11.675839824038686 9.48388670975704 11.1543821905609 2.4047562710635395 7.3276866751328384 11.28850790557639 3.3861059748401994 7.291850929395263 11.725956135119205 2.0882691832750635 8.034584992868558 10.482368958641226 17.401333867077405 11.195777230187405 10.907975272205016 16.876362925193973 10.479310313676313 12.507584589294988 4.173417722025114 1.4383236614468455 0.620454397740837 12.351056366563505 4.502635386154043 7.222680086844132 12.671490759678324 7.016386883872697 1.2359570972817184 12.070673689273034 5.238570164536414 19.97789091917696 6.001185420281649 7.239233969390728 20.042391128200588 6.079759529447888 8.260263391631138 19.068419372075784 6.420364446115113 7.085061729943032 19.345908736561604 15.640815025008912 13.000191760806421 20.212352588953653 16.02713428398958 13.152669345611397 18.953348188530907 15.381181533831779 13.842538450839756 1.0979853428880497 10.620297313342826 2.4574145641081415 0.3855566643914446 10.93787972669306 1.8737011056823334 9.25413700654792 11.876429067480958 0.640802653365529 20.38967133083854 18.879982042413033 13.635253254906727 20.568581394765978 18.447080447277525 12.836760920383849 19.637781998990533 19.468357867758332 13.384713032544203 8.10363183629949 9.35968092435749 19.177600597411196 7.827506462135861 9.994535753257463 18.456711045612998 8.261524049353165 8.562428581036604 18.644879710515315 19.042524222474178 2.4317467462269033 19.761595120509455 13.040532807911234 12.335432477418403 19.17208263656233 0.736711839535619 2.282534471587175 12.99450846779729 1.9982313554464068 3.267459483329579 18.454830392289978 5.211373024172717 9.57775404374785 6.532955647256004 1.3629879959698092 3.2425976597296358 17.773000563354532 5.807209463250003 4.777293437395315 4.510116666406063 12.38269680873434 2.545908602890318 3.989609692849803 6.1786074947667 5.152018778637357 5.370980558389147 16.61243079784993 12.682774679616452 8.760847839875389 15.899973186225282 12.831180959974885 9.428541769108122 16.618837419060227 13.36133919838665 8.032931671265903 2.7904555344432134 13.923406543729682 14.615032303160865 2.3422813810031657 13.158745302501158 14.245184260646658 16.301937000871085 5.462429909536072 2.270733888648216 11.538738130138416 5.268102621663862 7.367738390957186 11.069587458864667 5.290525795899886 6.5056965073322095 8.118449731163297 0.7395328195201513 20.58800792359719 20.38781134403555 5.130628930402993 4.279498969355546 19.9456718144452 5.598064280513985 3.5441015204940394 20.24703100956937 5.693047606586588 5.043168217622475 5.129099607920535 3.684551190639689 13.913073283713079 5.06319407553465 4.474239587628421 13.371341794082722 5.556648574367446 4.042949981055501 14.750914672379176 11.812073524097562 10.030950161555968 12.795303881197244 19.63858799327183 14.500519115656884 17.060294953489482 11.872171764354118 9.62749835746777 13.657097766581822 20.155002995861516 1.0481211633519367 9.841376173291392 20.518155085884963 1.115760616768608 10.695730111464018 20.147542382129526 1.9685562993307302 9.609125821158253 3.2607841973588547 1.4013140573713851 0.9706630462674907 3.0376477805603583 2.308450287708812 1.1298262503032062 4.207248815319468 1.3242589374275864 0.8669522487848663 0.6355781571011352 11.219502395185524 19.27446457680682 0.2442596669244335 11.216133752420111 20.146963719568596 11.660153935333485 14.733616795111383 15.255694424190166 8.489000435358633 8.856223829828624 15.490879422168021 8.206137775664178 8.272043308050064 16.229294182954376 13.928118510297253 5.644171286708062 1.5917312396533139 11.102612557877725 0.3314269151204785 1.4696789056412216 10.819977229903637 0.016487749682489616 2.363526563597299 10.367173775976152 0.4916647781979205 0.8869016405729175 7.539456505913073 3.9608005639235175 0.17032312485364526 18.3929134982705 2.1969337456096465 4.847414939867974 7.070719165039988 4.850060254432224 0.15146079201934057 14.982235031110822 0.06746998795239892 9.976783212548941 10.703004726515706 18.04995259831949 2.3877890581162795 14.316773086041675 0.7123604789804956 9.760446080841369 10.751013052552835 0.12203786744806898 4.083621692480845 10.126098819788835 0.7866793516718981 4.402051433152442 2.7872728903581 16.25768998148 16.65324717491551 11.06747947382128 5.982833550492164 19.996284122006514 10.559496411405142 5.302574377079243 19.511716226787996 7.876734112854951 9.057701733632321 8.755453878146723 6.567882066112118 2.2396101094782117 10.760808983048577 6.889701116069159 2.965748957364844 10.212154209207094 5.596927621912158 2.3545366273828554 10.620297313342826 13.44276528731747 13.169946556359156 19.50723159194079 19.60149158981223 3.0098513111156997 6.847107418280728 12.83128429257505 9.62264172525997 3.976383120028553 7.174961092087465 10.624285951709235 17.066432909939344 7.688069451471838 10.200270960188002 16.310100276284203 7.3089834745027895 11.619337558267908 16.88564219268888 10.859594948807288 16.29505504970003 19.7597558002265 11.823522776195958 16.20480435671503 19.579647078137132 10.614386688613331 15.81893976117509 20.54483556324783 1.424824290561157 16.420707491501904 12.67998469941197 7.389934233472847 13.373553111726274 20.507780492828296 2.213012298195479 17.042997076221692 12.722041067679537 1.0195145663219767 8.75601187418762 6.251084980523144 1.7363493468896607 8.259974060350673 6.65182947048699 13.036089506104096 12.149165132359142 6.206548629851591 9.741143551130357 8.80420619890505 5.463483902057765 9.407213920433858 9.08194356163127 4.589414103773463 9.433853064756656 9.336906419280899 6.230873123930671 12.113412052701701 19.12219365720218 16.12674691054962 12.892787856193864 18.64576837087674 15.815819116650077 11.38902985901789 18.77266080388061 15.56589888988855 9.903768397271634 14.34211023960238 14.521350967850353 16.074419281825552 7.4333752585826405 11.657570620329334 12.202939417485538 14.146336295327846 9.114534663723632 10.431136655478916 5.492603028784548 16.558263848842905 11.321512338069414 5.825664665639653 16.78278492248363 10.410573468045879 5.497852324872983 15.564803564326787 5.590830998502364 10.171007167820985 13.416849471195833 11.675901823598785 10.846161710785706 18.005147582887503 5.149042799752577 10.300048918908306 14.278188693139683 15.387588155042069 20.32864309718049 17.589068535059024 15.914191752008126 20.611919087275606 16.770963673024635 10.852526998955932 19.675415731970997 17.480176641004075 12.380878154971418 18.310474749858052 2.845697142491966 12.553340264648499 17.72982820300517 3.5851245627599475 12.661033500541523 19.232862871979982 3.2405516742463485 17.75233404332133 10.58167158740077 10.896898017467219 17.833925464412413 11.5199935964683 10.80400200991797 17.34359161010463 10.318256123057559 10.09336305205624 18.095480941952637 17.378848693281277 9.594473258454713 19.003774497411925 16.975913552193912 9.417051183969662 17.843328731027523 17.18931603805677 10.546145839463692 9.11213734739978 18.57163756351764 7.058649917340598 8.844815910770295 18.662177587783106 6.133265149813852 8.52369952249438 6.85956932986075 1.036735977465645 8.283244561908061 15.66557351600869 16.328658811274018 0.6808998355339501 3.668245306333491 4.018377488736022 19.21903697007777 1.6822464640947379 20.389526665198304 2.496060956570232 19.90041213557248 2.6288433477835635 16.25198602195083 15.153395150025812 7.06621386367275 6.5413875874295515 6.620003029635857 1.7147094337628936 16.794068842421755 0.5008965126967525 7.025149488366774 16.635618633327187 2.582653675509354 13.320398822200874 5.950697111840534 1.6353293303153595 12.870860678438635 14.278829355260712 7.084813731702633 4.552689697674461 14.282693994506921 6.383722706096243 5.198601114792199 11.576082531838413 19.71317346407166 0.4522061914985254 1.0915849216337667 1.5098070875896925 12.472637503918842 12.873567992562986 13.862894973072462 15.642675011811901 1.2992359149713837 0.8386928492914641 13.10063104816779 12.131639923370985 10.758928329725553 18.88382601513921 0.8104685828821184 9.89490246017739 2.9982780598971064 12.311293982019622 9.808743738158965 19.028305656691334 3.3729207350590156 1.7749730061797144 10.95366894799843 3.3228250904985313 0.9964052636208487 10.408341483882293 13.045327440558937 10.855337645680448 2.9149093180831636 5.607343548008894 8.096687885568334 7.167397145755314 7.272507066644185 0.33322490236336716 16.49566495966233 6.085504822017119 8.149552843813268 8.009888501428879 15.901543841747804 16.241074099373304 8.312301689074744 16.672033041625692 16.612389464809866 8.644226667328024 15.26243170972099 16.98827213117377 8.224489645453664 19.486606404947654 13.889348118714961 0.23479026744521972 14.761929927556874 10.995725316265997 13.046712097401162 18.706610605854493 14.015723888718002 20.33077174874391 9.768237358893886 17.843349397547556 2.181103191264213 9.781381265635003 16.88345154156536 1.9216866985474281 5.019071055263761 16.65893046792464 7.322458045564438 9.064997015204044 0.7562045012309364 20.302789280618953 9.087895519400833 0.2636489960195848 19.46089725402635 17.020945899346263 10.102311655230618 13.97294419224927 6.806993702896281 16.791030863976875 3.7383874753261837 1.3862584975271963 16.56247981892968 19.708151499703593 7.101367614249229 15.898092532902258 3.4475682054189463 5.781582978408831 9.647379549739712 3.678268568549595 17.673139938554094 18.840963652590347 2.4871950194759873 5.763789104660243 8.661049214635051 3.7198496068563998 7.278314358773516 17.894168370309202 15.01577679312471 1.3317009512915428 9.72297768002117 6.339517019745221 6.604172475290422 18.49234012615024 15.416624615688722 12.324169224000308 8.91652873528551 5.320884913828663 11.306653110165543 8.869657067850206 5.411383605054059 8.095158563085878 19.864948387195508 8.095985223887205 15.244472503812137 2.7249013328978924 5.907648750611371 15.578567466668902 2.1657686333995763 6.649039490282508 14.440834205800993 2.303882986781474 5.482435100928212 3.4530448332277452 14.206062538223803 4.970194735385235 3.3984645538200553 13.245441354040445 5.1938478151845615 3.712864323085178 14.241898283961378 4.029103412633255 2.717544051766072 13.098047733163641 19.031963630737213 3.190621361846129 0.44419998163766244 14.693751077967335 3.303274562547121 13.114849613950634 18.25444781404804 9.918441626495209 11.902303550562529 10.00858898688004 9.31896787989208 12.68314667697705 9.882915878558132 9.641737589770647 11.448652769313682 10.819956563383602 15.433901826436479 9.75806943103755 14.081154091143123 15.43512115111844 9.706547796594775 15.071659063294492 15.335053861117668 8.799390899737313 13.81178666903035 14.825107479298376 7.313054778949331 18.12040476511268 14.184941354749869 7.692802084559442 18.71464988214741 15.63087442887294 7.168533804357139 18.652567655967665 4.986913950092096 10.406171499278805 6.168584232550597 13.800048085651492 3.239456348684589 20.656930767907923 5.2566120365254 10.331648028039075 5.211249025052519 10.598680133388097 19.959642381987642 10.104336974193872 9.982611171198304 19.842215215158983 9.328102481746756 10.560922401287433 19.09472785207805 10.58780954385063 0.6304838599129506 12.592668652271685 10.728982542197443 20.32318713589172 12.758000812537311 10.907644607884484 0.9181246190390812 12.368560909031629 11.647072028152467 3.63300888967688 19.640778644395347 16.915856644977424 3.8575092967975673 18.773983461162736 17.25170826203701 10.647969783667286 6.238581735903056 0.19159517392382142 0.7845217669804316 14.840276705002747 19.496505668043557 0.2636551959755948 14.944415299450059 18.675197495404024 6.944818724997714 4.407817392241705 16.422050815304065 8.476104526857913 2.018639543979195 7.4952094865219845 8.083791977067616 1.165509063792535 7.7963413499257905 9.459975546078624 1.9353927346334487 7.6337785033446135 3.7419421167718947 10.445065889981295 1.69142239898948 19.587831020070283 7.98969731135644 14.746554036652169 3.6153596815685245 9.669327394014974 1.0832294475843427 13.965318246357016 16.461792533327912 13.937583776472458 18.889467975108275 3.100742666221728 12.49559800767573 4.081617040037624 11.988875602981619 16.414920865892608 9.148675754818484 10.523908663907967 12.411278605940261 8.546122696730407 9.744532860415802 12.406359974172357 15.004947536627311 19.433410782382186 17.436611616774083 6.144383737591715 1.5275678949062275 19.102891127491166 6.22835180848662 1.0380813679198067 19.923723970169934 5.17661193747687 12.005243486847913 10.345907926861985 10.462343100729052 5.011445109371509 13.799448756570527 13.378533743054275 20.422531097691333 19.866560375758095 10.19574499230073 4.067708472055279 13.917165254679654 5.285235166771386 16.676001013472067 8.265223356439106 6.154448332847886 16.282427805959742 8.17517932865444 18.98529862850224 13.999769335252369 11.92185407851394 9.905876382315022 14.990480972604068 1.424673424964915 9.367244870689643 14.210671172191207 1.1807237558409793 8.075608035134467 15.796971250379796 12.45521562753085 17.045105061265076 17.046758382867736 12.26529030842571 16.338020744849057 16.422712143945127 12.113804716582331 17.80736898616975 16.586762979968697 12.678352044329348 17.677541907321167 20.150415028414145 9.367513535450074 18.294230865111953 20.642236872164315 9.971781914700905 17.89168838790522 19.21480033347096 9.656844815914921 4.568044922059132 7.471670320204166 16.745399187743562 3.8260341867869987 7.113064864588022 16.2514073593899 5.326526873797727 7.141915326554374 16.332916114400856 4.692829370019613 16.584324330604776 5.625674751278345 4.34358584797851 15.670492147776592 5.471151180990083 5.437795417656493 16.713862078172895 4.9846199663684105 4.657034957322105 14.834159415072918 12.8077244597372 3.835726784682571 14.609349010151734 13.317236844635795 14.704270336664235 12.551480277845512 11.332403594126914 14.242580279122475 8.62891277598342 0.9122408607856282 14.392825879763862 7.761745595390208 1.4035956411830506 13.97029887768502 9.149771080380244 1.663570129940732 16.709398109845722 7.855881594141449 4.612870604011149 16.611273472728072 8.835639975875553 4.629403820037712 15.755927541593854 7.519409981480865 4.5813954940005805 8.618166185566155 11.878144388643713 14.70920963495217 9.050385785540568 12.781932642735761 14.729421491544644 7.663414293072226 12.114590044343593 14.625386229697499 12.581157400613192 1.177160847787255 9.450861610743983 11.977013020482557 0.4153123199352508 9.689828581887912 12.396088713715855 1.8936876972064443 10.151993969390439 7.90550190874117 11.745113999189984 3.638216852725247 7.46201905534866 10.934821081728147 3.8126422818054833 8.704407573664712 11.687619740457611 4.147481239383444 11.6734838407549 2.9104866827960585 2.5157561501618746 11.424224942634435 2.0948618031656556 2.043050837442415 10.832108477163127 3.3857753105196684 2.6472572171331477 8.918533387728731 15.36900895353222 12.231314549491126 0.6620478359596621 10.270144464420262 18.96109813354336 13.338275362029595 15.891913243412333 14.456830092306692 16.58701097820909 9.397665988178517 20.521647727770574 16.815686022376486 9.613403790805128 0.738879757487102 15.72319177386126 8.937422587039078 20.659121419031443 3.427005017985909 2.128465564739644 15.142751892208711 7.152372585691174 14.3072044872663 16.88996149537582 17.074782184032756 12.021322039433747 1.9936082549149792 14.24326227428357 16.72582799327212 1.4248304905171671 14.440276209760096 16.685548945727405 2.4544799182634267 13.61121809210811 17.49883850859406 1.3746521798765494 16.426618116231403 14.288005290155454 6.589809243867347 17.271796119509283 14.401423152097674 6.025137917000132 16.215654279732462 19.320819581241295 18.724301147002915 6.836918823904359 11.974264373318142 7.547805780006487 17.998038299996082 1.1732693420650029 16.584386330164875 2.5708530925703945 1.8286418920539402 11.528094872321315 11.738604045379525 19.072408010442192 20.41459515399858 5.892624190547233 7.238820638990065 6.870336586798049 2.7715043355727658 19.120375003439253 2.068511990123321 8.140748906279123 15.93217162443701 7.8723114775678456 7.872352810607913 15.395854763055352 7.078448443532405 8.142650226122178 15.293514155850929 8.645218660289618 15.380168874350149 19.374945197208255 5.774060365116744 6.431772365173441 8.624820805016846 19.185371208943682 14.821098174411935 19.76614175491676 5.039820241377097 18.598152708720242 13.465167795033464 11.198794542112253 18.605840654172592 13.987410756272514 10.362875139809246 8.759153185232668 0.3649707437863708 16.986701475651245 9.839350854328138 10.784699480206958 20.47684271233859 9.333847774315986 10.260162535244225 19.79083824635644 10.669504297541883 10.910393255048902 19.989195505635124 1.490996421055471 3.142096372808168 3.7138769825668043 8.086995287672762 18.417837321430543 14.792867708046579 17.21376453125605 8.29498314528692 7.392662214117229 0.8058620155667174 18.65143099736584 7.084648399542367 1.3647611833886582 18.364559032784943 6.35563690537112 0.1697692621167554 19.334066820582578 6.750016107164739 6.155481658849546 5.033826950567468 16.296274374381987 1.2327455200685586 4.962196792132385 7.043067361235562 16.478966411475504 6.4463009287567825 8.389325809238494 8.696698961692327 18.90376920697125 4.252632493312382 7.905729240461535 19.458231272942065 4.074011760665406 9.005911434429116 18.384440225056885 3.4429182384114756 12.444799701434116 2.807381414350407 17.79587840103129 13.469900428121067 4.5064586923601855 17.33284501968737 12.842857543793645 2.3171508926427906 18.489550145945756 15.934279609480399 13.433176022022066 16.772658327667358 14.981305037709326 13.12656753080946 16.663229104091545 15.977803300670324 13.408665529262686 17.7411741225034 3.444240