-134620.63933208995
-134623.41271660564
-134622.77402964336
-134622.20577322564
-134623.7858660405
-134624.18239672086
-134622.0871230204
