13.119437551018999 0.0 0.0 0.0 15.634158221360769 0.0 0.0 0.0 14.601146828031085
13.143016629068816 0.0 0.0 0.0 15.662256913512097 0.0 0.0 0.0 14.627388927155849
13.286273895382662 0.0 0.0 0.0 15.832973589375714 0.0 0.0 0.0 14.78682566912718
13.059073248507694 0.0 0.0 0.0 15.5622233497084 0.0 0.0 0.0 14.533964981194154
13.047769494160054 0.0 0.0 0.0 15.548752903031158 0.0 0.0 0.0 14.52138458083049
13.198118793420253 0.0 0.0 0.0 15.727921005624253 0.0 0.0 0.0 14.688714329949137
13.153716592221725 0.0 0.0 0.0 15.675007834902193 0.0 0.0 0.0 14.639297344147247
13.127115383135001 0.0 0.0 0.0 15.643307732658934 0.0 0.0 0.0 14.609691794506269
13.13749678160848 0.0 0.0 0.0 15.655679027210411 0.0 0.0 0.0 14.621245668123342
13.091011738917873 0.0 0.0 0.0 15.600283778021911 0.0 0.0 0.0 14.569510604711258
13.18534128054735 0.0 0.0 0.0 15.712694311861384 0.0 0.0 0.0 14.674493724772368
13.029494888446774 0.0 0.0 0.0 15.526975439169362 0.0 0.0 0.0 14.501046041147953
12.996564190770933 0.0 0.0 0.0 15.487732618293713 0.0 0.0 0.0 14.464396150476603
12.866763371688307 0.0 0.0 0.0 15.33305170801015 0.0 0.0 0.0 14.319935626886785
12.877355911867923 0.0 0.0 0.0 15.345674615698854 0.0 0.0 0.0 14.331724488554286
13.137129532625883 0.0 0.0 0.0 15.655241384310079 0.0 0.0 0.0 14.62083694204065
13.090355030002305 0.0 0.0 0.0 15.599501191798117 0.0 0.0 0.0 14.568779727090766
13.120034462910024 0.0 0.0 0.0 15.634869548726153 0.0 0.0 0.0 14.601811155151083
13.135524008975738 0.0 0.0 0.0 15.653328115492197 0.0 0.0 0.0 14.619050090549457
13.100058552471884 0.0 0.0 0.0 15.611064675751141 0.0 0.0 0.0 14.57957916538806
13.106422966756753 0.0 0.0 0.0 15.61864901460172 0.0 0.0 0.0 14.586662376622261
13.180643774468795 0.0 0.0 0.0 15.707096392515197 0.0 0.0 0.0 14.6692656823573
13.148660833173114 0.0 0.0 0.0 15.668982993014902 0.0 0.0 0.0 14.633670587671686
13.073784374899923 0.0 0.0 0.0 15.579754290096364 0.0 0.0 0.0 14.55033758220112
13.06599435721575 0.0 0.0 0.0 15.570471089612507 0.0 0.0 0.0 14.541667759919697
13.15105694757254 0.0 0.0 0.0 15.671838392226297 0.0 0.0 0.0 14.636337319231384
12.867306836681287 0.0 0.0 0.0 15.333699343829519 0.0 0.0 0.0 14.320540470816072
12.99447235326631 0.0 0.0 0.0 15.485239819468042 0.0 0.0 0.0 14.462068060844208
12.80163065335253 0.0 0.0 0.0 15.25543441535649 0.0 0.0 0.0 14.247446819342166
13.177088232805868 0.0 0.0 0.0 15.702859328181864 0.0 0.0 0.0 14.665308577818964
13.24490705465125 0.0 0.0 0.0 15.783677593979746 0.0 0.0 0.0 14.740786857403563
13.176936888124278 0.0 0.0 0.0 15.70267897390305 0.0 0.0 0.0 14.665140140269035
13.0293382519931 0.0 0.0 0.0 15.526788778796885 0.0 0.0 0.0 14.5008717141732
13.14680765458946 0.0 0.0 0.0 15.666774599013513 0.0 0.0 0.0 14.631608111098794
12.954958691118552 0.0 0.0 0.0 15.438152218073464 0.0 0.0 0.0 14.418091725693483
13.043515438582101 0.0 0.0 0.0 15.54368343433408 0.0 0.0 0.0 14.516650072215565
13.14133754978671 0.0 0.0 0.0 15.660255989992276 0.0 0.0 0.0 14.625520212659621
13.142480572556753 0.0 0.0 0.0 15.661618106223859 0.0 0.0 0.0 14.626792328421313
13.260156883441581 0.0 0.0 0.0 15.80185049470278 0.0 0.0 0.0 14.757759001857474
13.225344960790045 0.0 0.0 0.0 15.760365857529319 0.0 0.0 0.0 14.719015420661673
13.090998509487664 0.0 0.0 0.0 15.60026801278775 0.0 0.0 0.0 14.569495881149201
13.23272539531495 0.0 0.0 0.0 15.769160966363524 0.0 0.0 0.0 14.727229401461821
13.039001027817635 0.0 0.0 0.0 15.53830370582869 0.0 0.0 0.0 14.51162580389936
13.204544063084082 0.0 0.0 0.0 15.735577864551976 0.0 0.0 0.0 14.695865269568799
13.109661531271875 0.0 0.0 0.0 15.622508343924537 0.0 0.0 0.0 14.590266704613722
13.13960184854331 0.0 0.0 0.0 15.658187591270242 0.0 0.0 0.0 14.62358848131779
13.081281757587876 0.0 0.0 0.0 15.588688763600562 0.0 0.0 0.0 14.55868171928985
13.106222937771994 0.0 0.0 0.0 15.618410644261191 0.0 0.0 0.0 14.586439756363964
13.202499851528213 0.0 0.0 0.0 15.733141820569289 0.0 0.0 0.0 14.69359018475981
13.210765599522695 0.0 0.0 0.0 15.742991938873605 0.0 0.0 0.0 14.702789466332788
13.109347200010113 0.0 0.0 0.0 15.62213376196085 0.0 0.0 0.0 14.589916872779256
13.053828044018493 0.0 0.0 0.0 15.555972749667912 0.0 0.0 0.0 14.528127383309942
13.147784515716081 0.0 0.0 0.0 15.667938703904023 0.0 0.0 0.0 14.632695298921055
13.09511339145982 0.0 0.0 0.0 15.605171631221447 0.0 0.0 0.0 14.574075497891293
13.11260163984149 0.0 0.0 0.0 15.626012009564667 0.0 0.0 0.0 14.593538869045188
13.087767353453458 0.0 0.0 0.0 15.596417511996062 0.0 0.0 0.0 14.565899798352492
13.100505707212942 0.0 0.0 0.0 15.61159754066581 0.0 0.0 0.0 14.580076821785573
13.156965740281015 0.0 0.0 0.0 15.678879776412339 0.0 0.0 0.0 14.642913450988353
13.099052586598804 0.0 0.0 0.0 15.609865887345475 0.0 0.0 0.0 14.578459585729274
13.188589899429433 0.0 0.0 0.0 15.716565622762166 0.0 0.0 0.0 14.678109242670994
13.105495319110508 0.0 0.0 0.0 15.61754355638229 0.0 0.0 0.0 14.585629960450849
12.84671708068146 0.0 0.0 0.0 15.309162963989401 0.0 0.0 0.0 14.297625307773624
13.083988499008605 0.0 0.0 0.0 15.591914330510074 0.0 0.0 0.0 14.561694160086637
13.077668535609236 0.0 0.0 0.0 15.584382962846279 0.0 0.0 0.0 14.554660420020944
13.027322086829274 0.0 0.0 0.0 15.524386157110621 0.0 0.0 0.0 14.498627843315774
13.16639461977946 0.0 0.0 0.0 15.690115974104167 0.0 0.0 0.0 14.653407228137352
13.143058434068275 0.0 0.0 0.0 15.662306731652047 0.0 0.0 0.0 14.627435453611946
13.231314608877481 0.0 0.0 0.0 15.767479761792506 0.0 0.0 0.0 14.725659280804104
13.207133327164557 0.0 0.0 0.0 15.738663436182131 0.0 0.0 0.0 14.698746965134523
13.213612572903637 0.0 0.0 0.0 15.746384617265232 0.0 0.0 0.0 14.705957976887374
13.182856793554128 0.0 0.0 0.0 15.709733600885789 0.0 0.0 0.0 14.671728639818133
13.126329025803388 0.0 0.0 0.0 15.642370647140355 0.0 0.0 0.0 14.608816625977623
13.255665227297076 0.0 0.0 0.0 15.796497882400152 0.0 0.0 0.0 14.752760058068008
13.160275743719266 0.0 0.0 0.0 15.68282423799963 0.0 0.0 0.0 14.64659728621492
13.176085971173247 0.0 0.0 0.0 15.701664954041764 0.0 0.0 0.0 14.664193120757554
13.088114493702136 0.0 0.0 0.0 15.596831191740467 0.0 0.0 0.0 14.566286144620856
13.193645129300833 0.0 0.0 0.0 15.722589834040086 0.0 0.0 0.0 14.68373541020407
13.157346747871031 0.0 0.0 0.0 15.679333815156202 0.0 0.0 0.0 14.643337489575586
13.170103093655602 0.0 0.0 0.0 15.694535284544413 0.0 0.0 0.0 14.657534537053065
13.226586410520841 0.0 0.0 0.0 15.761845267103064 0.0 0.0 0.0 14.720397079725066
13.20649884369174 0.0 0.0 0.0 15.737907335551728 0.0 0.0 0.0 14.698040823098285
13.131035527894483 0.0 0.0 0.0 15.647979286845768 0.0 0.0 0.0 14.614054680414887
13.088465338191275 0.0 0.0 0.0 15.59724928575044 0.0 0.0 0.0 14.566676613486598
13.181209994081733 0.0 0.0 0.0 15.707771144537325 0.0 0.0 0.0 14.669895850813324
13.222551434307144 0.0 0.0 0.0 15.757036870683702 0.0 0.0 0.0 14.715906393297793
13.258031178595626 0.0 0.0 0.0 15.799317336877657 0.0 0.0 0.0 14.755393219906217
13.242924756828756 0.0 0.0 0.0 15.781315331292936 0.0 0.0 0.0 14.738580678864997
13.211197408124711 0.0 0.0 0.0 15.743506516116646 0.0 0.0 0.0 14.703270043398316
13.149033373927795 0.0 0.0 0.0 15.669426942008899 0.0 0.0 0.0 14.6340852031792
13.209508803652856 0.0 0.0 0.0 15.741494241628232 0.0 0.0 0.0 14.70139072793741
12.846524989354826 0.0 0.0 0.0 15.308934052789368 0.0 0.0 0.0 14.297411521652561
13.143283863559034 0.0 0.0 0.0 15.662575371242166 0.0 0.0 0.0 14.627686343109392
13.003605422705284 0.0 0.0 0.0 15.49612350652401 0.0 0.0 0.0 14.47223261914562
13.1114369208059 0.0 0.0 0.0 15.624624038349054 0.0 0.0 0.0 14.592242606641719
13.094369368304877 0.0 0.0 0.0 15.604284994452186 0.0 0.0 0.0 14.57324744476123
13.068024280986995 0.0 0.0 0.0 15.5728901071423 0.0 0.0 0.0 14.543926943281667
13.010505364325006 0.0 0.0 0.0 15.504346022053458 0.0 0.0 0.0 14.479911840171873
13.11180999073779 0.0 0.0 0.0 15.625068617952417 0.0 0.0 0.0 14.592657811091716
13.162700433687943 0.0 0.0 0.0 15.685713690116813 0.0 0.0 0.0 14.64929582066866
