10.52476702824132 12.03647389921381 13.646891418320166 10.239970277883797 11.898189779651048 14.537765513278357 9.826406247963027 12.591533687009832 13.242614638241761 1.341606803404754 9.49002911692992 13.371922438632115 1.5545877526079963 10.455156604539367 13.696052574711345 2.1610075145287473 8.956872230125324 13.634961913755024 10.135696988228299 4.413272524718629 2.330780908101464 10.959177844430661 4.844932194853521 2.6306453324863295 9.476746998353267 4.948305491093019 2.890063842845159 5.1966092139586255 4.164126533962246 9.828179995919923 6.138991532685871 4.4040338167952005 10.046408720143575 4.648361038139092 4.841304670370664 10.21480326082968 1.3724374816496485 1.2327325270001124 11.009426602194818 1.4644178583198426 2.194097359919928 10.713622643731993 1.3386024522055704 1.2742555468490877 12.00601450105161 12.548138523422326 0.15291491631965703 6.868088531258691 0.30048759766853916 0.5247578228844334 6.524420928778483 12.333740674963572 0.45668762115097133 7.784106028283409 0.7938138720682412 11.572295079221206 2.0343629599612507 1.1768266677639552 11.861434363408113 1.1768948888392206 0.034426716077628955 12.149008498695185 2.2342100402321683 10.05112909377443 11.64733957395679 9.662631061238635 9.996460397499334 11.708625714532621 8.650202753482745 10.843464405230671 12.147600783045961 10.011526759582924 1.4256105620439286 11.844267579372605 6.5303049965201145 1.5236783577377957 10.880295914211404 6.251014474102757 2.256923722464247 12.253991549922194 6.184506797381621 8.008301472705263 0.27447962466739906 9.242848417918681 8.134602298008922 14.989970222618146 9.592049799157907 7.1835873893731055 0.6739153322894786 9.70130978702655 1.3109597972855735 4.256618568696931 14.389564410870781 1.0598327714589884 4.145006265675391 0.6896035557129871 0.628781843226463 4.552198184777633 13.820762012240067 10.45797597166908 3.989055511506429 7.091296082032953 10.671980237001302 3.6362712118720175 7.987252647098407 10.269554609561345 3.245667509609284 6.482778522047793 1.5589171669998325 4.047574762702749 6.943941183347417 0.7426047714753488 4.5431457728674305 6.7015044729546265 1.6015684584781953 3.7977400014749394 7.897644264737437 12.283860573394598 13.337423565647955 5.900368642789162 12.461445280085192 14.261214329421652 6.269106178485613 12.911153360459021 12.682446141463373 6.240209305335738 10.578386169512333 1.9739374544887678 5.4039881633275835 10.36219095810909 1.8071684121152343 4.446414847860012 11.29611123961593 1.4288418795127444 5.7506916036570965 7.636745881822853 0.3355886528362905 2.48902887578561 8.464621749604806 0.7711395481488151 2.8410181375044297 6.778485396672741 0.7566963593488983 2.839295555353981 7.636772120697954 8.03353539889089 6.56758256637758 8.433279413295422 8.515849217410269 6.2119133024257005 7.769291559400798 8.037145868104933 7.53794602151364 9.744777107520587 9.655579363554963 3.1759980484383528 9.711689886016917 10.52530754906842 2.7082940355757907 8.939033730887203 9.181285457210524 2.748154822687052 1.1671694497826501 1.7353447392984258 13.676166131271511 2.00113404853203 1.3128096379802672 13.93254749183728 1.267823086617823 2.7138868518037897 13.787924060049868 12.31850900796684 0.1035097383900297 9.843409039029146 12.412417941957033 14.752643533151478 9.859105134115184 0.014788230007508616 0.4232435509459137 10.393667112681495 1.7859490338202164 12.082579538599354 9.406308738141847 2.6182592714944124 12.554401742909182 9.844431043214371 1.7999737125622555 12.174805248751754 8.438369755065215 3.6706611935245035 13.365329921262727 5.753392895848851 4.377877594149734 12.893335852320982 6.195617649043579 3.6471118031204246 14.284556432712424 6.011248881195354 1.4608887296186186 3.7978344614253063 9.816644074481312 0.6043836252128331 4.228445888499872 10.042349566165289 2.145421622718137 4.381629753289325 10.141140242868216 12.431913426157848 5.833933122974557 13.132566172176304 12.386297141792955 6.662482017902876 13.60760001479862 11.652094058125279 5.3030760735726545 13.450855534657823 7.850802624905279 13.520717851560752 6.27093109224896 8.5862258162652 12.917036116256899 6.553199726990398 8.0834496109975 14.41155258820629 6.504125158887057 3.724844470610212 5.593558788164787 2.9868262545026996 3.704719253406949 5.431838105360886 3.9452155989859437 4.611114954931749 5.196028022875115 2.7161053486936675 10.112777330826669 9.183692874001137 10.494210546241241 10.204455960433188 10.068117453459246 10.129927059593362 10.847623266934345 8.702832689162411 10.057665197562347 7.904067541362416 5.312174403514287 3.3783850518191474 7.783893493395082 6.291952367036957 3.152826497835743 8.02925321447424 5.20156311357789 4.329182177791616 5.229932585338213 12.150509362351022 2.0118486931799473 5.8646116157438595 12.724470323826797 2.4742091591279793 4.367054058170144 12.501512042366004 2.3663503271897866 7.6713680775199915 7.919233611171395 2.424885321711168 6.873404527354364 8.430174042427094 2.7568136514707247 7.623783877522446 7.915872411270823 1.4546294459630273 5.674366651816533 12.05603235671487 6.807698448267596 6.526303568067053 12.45484357910952 6.508812733924035 5.655277870179801 11.147124282899048 6.478340216324283 12.243229675299093 5.533601646612875 3.397511879824778 13.096124310490838 5.124095458726633 3.2561000863498544 12.298646179514597 6.441868179932451 3.0757471783359964 12.625805593724358 5.311048755772409 6.077027117188654 11.83698629153179 4.845244437467234 6.397406406072047 12.41056810126234 5.488340899005615 5.087040919307535 3.1787216436739443 8.161703120158062 9.764167636220993 2.3772814425572957 8.701503690138493 9.951092070504156 3.2649557066967922 8.042696702132769 8.834557089949664 6.0219399108556795 1.840422250475802 13.139253149496056 5.143855955565979 1.453493302671109 13.500499486350876 6.683303877240098 1.4336291622751114 13.727503802352402 5.831471916489986 12.037974762869645 9.671304321403614 5.577387769439401 12.104028507051517 8.697188707127964 5.7351752448655064 11.059839352928364 9.917348877122935 7.8906857150603775 0.45144115807431884 14.592373860140718 7.705544212340397 0.3968970964559574 1.003992509410586 8.055872553265257 15.228109005269221 14.123326416872931 3.6892120782216447 13.119951832971 10.687092517116321 3.7429492944306184 14.013132325050657 10.306703608930812 4.542972596291756 12.622145270647625 10.428301115872431 10.352325141070724 9.19416743294187 13.213178556208542 10.261879738594 9.239147424585537 12.25785522428097 10.485172565712343 10.172130978251234 13.404920447960437 10.400748985071536 3.7894550766614707 9.750179691904096 11.170794372128597 4.3703890191956125 10.059257897281041 10.528952128820093 3.0084037934428607 10.31244073897187 12.246771923437867 12.952135859480894 10.173496711700295 12.31478308770235 13.199155189410254 11.18982411629635 13.096426057554512 12.638858122143866 9.906733940200406 8.090481629524845 5.200453209161074 6.181878974040153 8.880074978532924 4.7014422824705155 6.493919548416119 8.248321582701154 6.111346253878364 6.328648745810912 7.963669146156696 5.419878426089377 12.817968619421643 7.924389550128945 6.318185994363975 13.19526265228887 8.747817928581101 5.080805250639536 13.29830271481457 3.634202276570222 8.542677155258348 14.47146118783926 3.664442580125321 8.54250529062643 0.8552325189633367 3.4301031865890197 7.595214990311348 14.254868457478224 10.241255982763798 4.587077521450772 14.24317247890149 10.10570595398667 4.788492374509037 0.583552582269325 10.152896570857685 3.599530227010389 14.142176424746236 10.047573726198104 9.370912495629199 6.006650518333722 10.874268844600465 8.878685630096271 6.22845560123378 9.982803063008722 9.534101243495057 5.00644165471285 5.359040970277792 1.4593708106939656 3.528630162597172 5.452438246203497 2.3062265687809766 3.058722084226039 5.633053542968375 1.6775916632550851 4.494540880628415 1.2474459762135803 1.5831933742442381 3.2627293381443843 1.5228911914847343 1.6093955149211334 4.282385144047132 2.071231203367124 1.1863933616261584 2.846494190738225 3.281774825637198 6.024435227877883 13.629588192134126 2.5719870152519686 5.458932367791251 14.023192309764779 4.112248342054252 5.5488766077535265 13.763641293086684 1.3911589190349525 9.209630002039502 6.085204462614204 2.1757537623360927 8.644439384566581 6.204349946677538 1.258308870505824 9.176798609568076 5.168836676606873 3.7175369438942942 0.7458137859003281 14.227038194601247 3.9324070921048833 15.445330156688954 14.019001961410984 3.8517619094787703 0.7363809103011454 0.5837401902263046 3.6259632697881816 8.102809964991538 2.360231421515991 3.589425636208594 7.121531137813031 2.47550798344553 2.767020573885417 8.461097868678602 2.6011213502215162 0.8708302182677431 9.664130612950716 10.573421774343027 0.8872334510377823 9.639944929825413 11.539871701257617 1.2272302348912152 10.518615323973647 10.23117107111833 3.434655631419223 7.932585262767066 6.714689507693401 4.22010323816118 8.372483939683999 6.297051892413037 3.4824103841049316 6.988110393750434 6.447706329642655 3.1431810873482338 5.674575250873595 10.589600664730945 3.0960691871025245 5.653703537673679 11.573309211743899 2.944434727887847 6.634027269798471 10.278595213977752 1.659267744827577 1.3408826104519376 5.984792223429969 2.5164917944111584 0.9581781215386727 6.216599565518924 1.6097943458226842 2.28554246353804 6.346476749498992 8.073819943835051 7.660409411333625 9.240746684023007 8.813270802523135 8.141238109522227 9.603482077039867 8.011791243093834 6.725471061472828 9.509596758037263 9.649766140776105 11.899331170717987 1.6795412116751665 10.270905911629102 12.545834750188366 2.1254459671029555 8.84718454859252 12.384068149353036 1.8934326498444496 3.863070864647748 0.10389413791027456 6.964470479227252 4.680713571139906 0.5392390580532482 6.737918783821235 3.6696641162706265 0.20512502999769222 7.9391410457113105 11.83210586076281 8.29970648375723 2.467024955125041 11.060105677510649 8.841570741264437 2.5874994382122933 12.036519817245237 8.281101809366131 1.4375938563030293 5.442113248850844 9.442782086477434 5.742953759389506 5.496585153562674 9.531255637490242 4.732291327927982 6.282098357492386 9.10760144814898 6.0577690948075125 3.170797503393129 13.074973153271085 3.324126993939398 2.392355676303416 12.558748212569835 3.0681247851188544 3.274729687672301 13.264943920953595 4.393981703743609 5.9114742466761 1.4244193171142958 10.408896155790718 6.041828978183025 1.5024616033302878 11.406475884126365 5.601999834285112 2.2633889812893897 10.062805393194838 10.14561528301687 1.506369883776736 2.979787676256578 10.271666839007061 2.4050959621092107 2.571744305657275 10.929593512753112 0.9485851888013676 2.6458743755955525 12.42770208670397 8.31896713002588 14.45945952636759 13.108928881540631 8.916708384006634 14.043736037025921 11.555862983688556 8.619221201706013 14.055927930342081 9.913912896428322 1.9238461299752219 13.467239088271533 9.115949346262694 1.5472539870169766 13.788055254425375 10.000291273264232 1.82294322382658 12.544811434059387 12.166782712689306 0.15998498121590118 2.217856661324823 12.960797312152078 0.7200235955625349 2.45658450672194 12.201824730388077 0.04954555591142325 1.2679214823994556 1.3366082976978155 4.248786264478972 2.5009137742630783 1.2312539663881128 3.2997143445444617 2.677616854750243 2.254037446203023 4.5336249970366564 2.666958623683795 5.821409307888354 9.321117670404305 10.676447405487425 4.939350163020694 8.916708384006634 10.467446893637161 6.508421774685015 8.776407806892282 10.265147790487958 1.2757065566422303 9.1764706236293 3.3018016470588294 0.9953100656393216 10.047715416123655 2.780613623132028 0.4290305348496682 8.676223845921436 3.4843743639063196 5.962285828311196 9.320053684018918 13.349830617739954 5.115780359206797 8.989954203853973 13.725314168225138 5.967861589270379 9.316864348750265 12.358718772116958 8.171113692713407 0.7343657646933089 6.637944733851206 8.987037752886382 1.1302920227704907 6.216877697595006 8.354077368799919 0.5993772478433642 7.597226200087919 7.90850191125466 7.948954384999472 14.377299048704332 7.065827317915159 8.367043308931592 14.062731670656039 8.639989271349277 8.480093502308723 14.064134138530244 5.564556959514505 9.470595294085594 2.99893024758727 4.741627119689287 8.94936791184614 2.7640122868549684 5.355957902453302 10.388086103947291 2.706147695592444 12.439142236248461 5.4910605584099415 10.53354655585046 12.414569529715402 6.476684543305345 10.290700519006078 12.272079318473784 5.503035981006511 11.500522572210846 5.726647610457344 1.6623337573832502 6.096155257138039 6.606266539940515 1.3263108511640207 6.335789655669932 5.591504284244298 2.52114919474177 6.5842718028862315 7.6981054912489695 4.928622398935225 10.286100844200691 8.58146346043418 4.5705680212365705 10.012533020443088 7.846171463449768 5.216399885504337 11.235759202993732 3.4201324140502445 0.09203023053288807 2.2383557824982905 3.076901688840486 14.8341913330811 2.3642761441129707 4.127729278364455 0.23109495662993437 2.884310969479037 12.52731797602886 13.511870102876344 12.847785165143845 12.308839982491738 14.39251103654474 13.178837116474993 11.933453515844432 12.915301726612654 13.403124396959702 1.5940116624488083 12.025608381034054 14.077508093169754 2.3817814096372953 12.58842175642273 14.100373960877425 0.8334922989975431 12.621238717512847 13.792143271166275 12.339919930050103 8.031330021438565 6.823248917596818 0.10395973509802965 8.335039752969635 6.545198182028031 12.300207392583168 7.040453013747734 6.686421055602221 9.934680966071586 11.869985612803868 6.9959650010122285 10.736409794814357 12.348000191637775 6.761849949858049 9.972989723720561 11.015250320523716 6.526188117016605 10.207119206256047 1.2670451039710475 10.852771334229365 9.42837563210266 0.9478872347236532 10.29213053769914 10.94465462706168 0.6617365584108678 10.499905694082138 3.6067826520885924 15.606425042321671 9.673597599087532 4.488723722018293 0.4663015449883581 10.026842390979985 2.9122265087000954 0.472583131687786 10.121210505284465 6.389533431597681 12.014304673640096 14.187586733941579 6.233950021680147 11.0753163534073 13.924502652730993 6.334143166257279 12.061301122835358 0.5781119515169175 8.125444930598311 13.285330214964123 10.365940493361173 8.845308469022724 12.743841173370877 10.033836363138432 7.367482545525739 12.758162351401568 9.999976406763007 11.789244658283632 13.2158680409065 2.8945756174189547 11.78523011039302 13.157693830917768 3.886826230221378 11.961529112203614 14.19351934360215 2.827220425032023 7.5986339157371425 13.331716610313261 3.0840845808996686 7.596547925166531 14.31222926233879 2.887421588122384 7.690811083970603 13.24916910924225 4.063762836696951 5.6984014614100005 4.0472612081452795 7.254566170411628 5.516579176390428 4.192893524680366 8.25426337596801 6.619071110990309 4.429126053055279 7.120425169227479 3.511509296593092 5.4026027507221945 5.874830345652349 4.285018215163621 4.904247795909188 6.242473720257044 2.7820292104437825 4.886956377216944 6.302804765779159 8.218422384522382 13.755027070390685 13.180617424150666 7.950431633667717 13.644478753754534 12.260833336605051 7.570781349816329 13.186429334985768 13.65568144147935 11.868997719156276 0.18717370359663296 13.970773597029682 12.69445961042884 0.6946965213702927 13.797838419007169 11.106233619940031 0.8057158258145257 13.860053415761614 12.120667889697474 7.95734951308837 9.50953903251204 12.243925005489297 7.906600904753518 8.592733057290506 12.796410759637808 8.597912611235648 9.898937058463835 5.817893298624681 4.189548068104856 2.098111618965407 5.795262268849173 4.212123996242649 1.108601656667391 6.592136905698068 4.52035206206629 2.5661659208105814 3.7293969154404154 13.634221977477148 13.46239145609643 3.699550195011848 13.432807124418884 12.503036521009433 4.396585912097486 13.015235106326275 13.790844446848721 5.5123153591863465 4.491334490090946 14.089349697503302 6.225671656585454 5.023662228442317 13.582471044113397 5.499733818574919 3.6403513569503843 13.700447586290936