-44878.037947839824
-44874.8097806901
-44876.453839305
-44870.56635612806
-44866.792849715996
-44873.233845094415
-44875.0100859997
-44874.39022482516
-44871.50076811074
-44876.406176389246
-44877.54313603561
-44872.04843449063
-44871.02200558073
-44869.94324972389
-44870.17181378352
-44874.83816161924
-44875.892363283856
-44876.81594391124
-44877.075642692056
-44875.300708477436
-44874.63067617783
-44875.936840154725
-44873.87282743629
-44876.56557101589
-44872.19015164991
-44873.429708417716
-44867.68781920593
-44870.43975625309
-44869.59517993311
-44876.70483234779
-44874.82863709066
-44876.748064706015
-44869.81816293791
-44875.07068888088
-44871.60077348392
-44868.111614604466
-44874.40083536007
-44873.912679188245
-44872.95794098211
-44873.30993941643
-44875.433112404535
-44874.319237535674
-44875.72229145441
-44876.25051951829
-44876.35747590343
-44876.58443068182
-44877.872772290735
-44876.8382039117
-44875.5965895551
-44874.79391781387
-44872.99399130374
-44875.13387874832
-44874.3902894522
-44873.49236086033
-44871.94706759585
-44873.16527499216
-44871.97640813445
-44874.96634070688
-44876.70221420449
-44875.6916696678
-44871.45450698943
-44870.826647981004
-44872.46601372064
-44872.12066384373
-44876.66645939848
-44877.3681126867
-44876.783812437054
-44874.929798403435
-44876.783194738644
-44876.055048311035
-44878.02901665546
-44876.60356341399
-44875.72362562856
-44877.634120290815
-44876.59434923124
-44873.92039470402
-44876.988384219534
-44876.603582598014
-44875.53243463593
-44874.74318545403
-44872.51743656936
-44875.363566093874
-44871.96518888087
-44872.28803766447
-44870.850773457874
-44873.102695067886
-44874.32715985797
-44875.20647409454
-44877.758546520454
-44872.3811371966
-44869.71494036281
-44873.69426184548
-44870.750845637136
-44869.40285912382
-44873.49219038101
-44871.991431131304
-44875.14809615216
-44875.74151262357
-44871.336886735065
