0.2732702137179036 -0.2605391393044803 -1.277699174478064 -0.6303388501097015 0.033605346759271154 1.5676447919691197 -0.034593421704153325 -0.053642725026120525 0.23999268261169637 1.2623833700566 1.2104938802761604 0.3538033353769649 -0.4369026751013056 -1.7959081019590295 -0.7268670616454386 -1.0163401103754497 1.009108625624017 -0.05716796457055961 -0.6662260509246138 1.119865064943994 0.8172104845267023 0.42820386177572706 -0.3108173187337421 -0.07943551771950835 0.0769942552678674 -1.1878303772403735 -1.13241796190834 1.6237550046991263 -1.0552128761812472 -0.378697013294851 -0.2761789027242663 -0.06103284684260457 0.02182223808141403 -1.0133419469790743 0.7536810965144891 0.22575905551081762 0.438446879659974 0.9147002886447602 0.048091713300904275 -0.27475862533797196 -1.009622846256274 0.10570525004931473 -0.03907511162459077 0.2695796522401938 -0.6755313874859399 0.10155600376763156 0.4444046399053056 -0.16457374225074883 -0.7627897436839767 -0.015755977282676092 0.9009723975357063 0.7891710618909829 -0.4560530227775113 -0.6637732185087472 0.44312397342066917 -0.08973047188761321 0.34713029423216346 -0.37621487030294565 -0.3759053094823268 0.03230154034618307 -0.02925169777626575 0.04327089487349322 0.11217980203006486 -0.06945038148233847 0.07246602838021068 -0.7030005394404861 0.5320928845519095 0.05883018276433094 1.1432672459180182 -0.14089105392182832 -0.33550170885429964 -0.9922666143660137 1.002226553792203 -0.7781855094137566 -0.41301995494643706 -0.3478520028895364 0.789987387144691 0.6931326455074709 -0.8555376622416749 0.07974250743696588 0.3122774482190364 -0.43241712852612624 0.03660942369291759 1.255547320971373 -0.39699966825878075 0.30158911526725474 -0.09354933141307113 1.1762390728583485 -0.5847629612521155 -0.6794183812451718 2.322026514095059 -0.6915146502880736 -1.2068503699863022 -0.6205876842602086 0.30758492783937347 1.6196330121109526 -1.75286012172962 1.1698537381572949 -0.5080821234596089 -0.02219736203264564 0.5484278742665071 0.08531228821525952 -0.5888340459976955 0.267578562649765 -0.18985642807693753 0.6209388969520403 -0.31253353009390045 0.015135055869225545 0.6284336626671887 -1.0911026480993207 0.5497908160523047 -0.2871559705610603 0.017461390009557026 0.08278592224898 -0.43089195013085146 0.6871913403223713 -0.3005236501172179 -0.6350146583188161 0.48543456126342205 0.0691269367046487 -0.09235222578117644 -1.2151709740368555 0.01873048652996774 0.669591367852421 0.4141725804936416 -0.02824819621241587 -0.6702038046254394 0.22138483770252196 0.9525384425384564 0.5129368804487489 -0.37103795408769646 -0.013544057233021836 0.08122911928482139 -0.32335144664501086 -0.2912350257264404 -0.43992706374992624 0.6564805415020759 0.9018823109444855 -0.7701739519631897 -0.049713050954411156 -0.339001494477442 1.0821112432339879 -0.17960261155941326 0.0813191078954664 0.7192334563595806 0.5403713225106177 -0.40778493179974284 -0.4802648441370246 -0.4396550410354622 0.5726546080243557 0.08027318312945529 -0.16883354596836728 0.0419064104257988 -1.9540479156589765 -0.03806466808220541 -0.7844417747361135 0.18342172819518732 -0.11383559246593299 0.18222307990139586 1.2871217533435446 0.2066310764321151 1.0795013164149667 -0.3309868517030816 -0.3463121692062423 -0.38748272990728105 0.3941549997211341 0.12315275610180079 0.18424910919248913 0.216196351523047 -0.41097618504353095 0.33802190417299205 1.6067006203200005 -0.30783638172854727 0.92915631616909 -0.32451101417075073 0.3839227804701646 -0.13014281426638877 -1.2714310820811652 -0.11164912633757547 -1.1077415422075825 0.5673748476826551 0.44111465630012414 0.4139833473009709 -1.3550351293560663 -0.8126010107791489 -0.613650333710427 0.009533907632364225 -0.2245807189320003 0.01542044832012828 -1.6970872377343742 -0.2781769069909016 -0.9175084475175167 1.2963957224463027 -0.43295654596936406 0.4069688636563507 0.2526983031038228 0.8449781415582738 0.9977224952742625 -1.3017749844803452 -1.2353798448845628 -0.638949474596848 0.5519775392909784 0.26569625802538754 -0.07843073060407783 0.5733770880126771 1.0413993673369224 0.23876703773471136 -0.6215415635330457 -1.803151156674688 0.035884629711751104 0.11781386038739064 1.1190960479884533 0.5414540140518351 0.33450232105550776 0.5605578247608216 0.1449883639196535 0.16315655018824804 -1.8795931389835112 -0.2401163526737542 -0.14877225644211797 0.5409351654338878 -0.1260038523973507 0.16957556634071438 1.035661950632513 0.15072989438912104 0.6483288589292189 -0.6950041514985708 -0.10063683438747184 -0.19827113450319403 0.3135617142480987 0.4285213930161459 -0.6553664825022907 -0.10104075469410986 -0.2847249925220645 -0.31582762746413995 -1.0988522101377527 0.7434067111716746 -0.36727231639767716 1.2134596477727038 -0.23229325708490958 0.08989836492404518 -0.34404779865209784 0.10546845144816029 -0.21931458543705454 0.9482657833050314 -0.7069757220381502 0.16853452667070976 -0.9057253388396594 0.33894801553168724 -0.26192110725367146 0.2899073080539523 0.6805555801734087 -0.14381157000273298 0.42378824920653463 0.6290805522225682 0.3412427251031349 -0.23301959372797287 0.12489673537610103 0.18336953480101323 -0.18121315057964274 0.13115557180161927 -0.6605305432017333 0.2971809588972301 1.3231526788251728 0.6902509530843016 -0.2599737537193135 -0.6459554736010359 0.15925721513384186 -0.010181311408376014 -0.5285769009788509 0.14345110133952071 0.18087865005835946 0.13134969009029637 -0.3409789299187869 0.31067539383923914 0.2864743711130034 -0.1916284323756958 -0.6058120686129309 -0.2965980898105666 -0.5663083540913537 0.4698112529038683 0.7014067125908049 1.0161884152889338 -0.504035721304377 -0.6243407235447377 -0.22723898249045377 0.6704873973041292 -0.24249333754636307 -0.5763114880506527 1.1202928965100318 -1.5875273898256594 -0.5371628428756491 -0.44394698354259676 0.33508647569375194 0.4625568853343001 -0.3914833664262419 1.314101367256182 -0.21599272015267318 0.23448152298548006 1.6093352297293702 0.07286737758368741 -0.07761209135752441 -0.1334222563486089 0.010068954200227822 0.09249003691062135 -1.7803310734563793 -1.9598429250741989 -0.48573666588487313 0.08299675270820545 1.2472601412619164 0.5220876937100816 -0.570925798258707 0.5283912673306062 -0.407697257181943 0.13839039898716166 -0.6018649110397247 -1.6120266605186042 -0.7510647419375646 0.5753318977462027 -0.27988797614473737 0.9077598527711851 0.43384511922190444 1.2049639515968666 -0.39367034677523166 -0.5371145061362169 0.39908071915752563 -0.07880971121005137 0.520157309456588 -0.4020045776725399 -1.292541124586903 -0.26461793735954425 0.31322515684428637 0.5269887305561247 0.9055867563792661 -0.8700831641560176 0.2582459723949294 0.1162280039575095 0.5310785843547822 -0.19937336642843728 -0.7434509341460487 0.8629033585781267 -0.010637939329820389 -0.43794448610225867 1.9405090006322774 1.1883420267694695 -0.0821133216619876 -0.5320352918410967 -1.3995411821882413 -0.3285461034720729 -1.0706376953767498 -0.10697768900383513 1.3511147112557376 0.8623294883525277 0.5951790143791169 -0.9761229147266157 -0.036520463523537106 -0.641846593638985 -0.4842266569982499 -0.7270935758339478 -0.17932467530767826 -1.1731537490648054 1.52348172429866 2.476577324892167 0.16627452699193945 -0.6449907956949215 -1.7412662462444335 1.5719045956867381 -0.6473942629300915 -0.33252360006258214 -0.11564590620179438 -2.308170067827941 -0.3385214695172299 -0.13506107750361254 0.5336918536079132 0.15727875125123236 0.12285425102477551 1.8809954186476767 0.4318401729767337 -0.29250283669527044 0.4439109880983387 0.9489820926457656 -0.046713087785822775 0.3152301030894571 -0.032135961302596265 0.22632341265471992 -0.40565168750682395 0.019645542145069392 0.4110720871914469 -0.5054973934515681 -0.8227571253765443 -0.03877454966503644 -0.20486524278094392 -0.05600119795596807 0.3191554062857923 0.17188081743512335 -0.04885301694696102 -0.4247650112975072 -0.6152181924181792 -1.0189667493650192 0.04168478133329595 -0.332677352031627 0.5739766692698889 0.04051930027028505 0.7173233838210614 0.047634828269143774 -0.19259002495801672 0.6472268841142917 -1.4422297221957032 -0.0782749217525039 0.12921721712832585 -0.30858020187310725 0.4046178469256709 -0.5742733745747013 1.1884682679346885 1.1558638516361062 0.5755638112513506 0.6722408896601262 -0.15245047662465358 0.07262337989368138 -0.11510905986171788 -0.618105027047671 -0.46319349047703456 -0.7338247239101943 1.6409767678940514 -0.02805664902690007 1.3692720988910547 -0.9405918116995415 -0.31804726082327806 -1.960802460773991 -0.864491014780221 0.19487496433745147 0.35423579492869317 -0.803803724202493 0.2943735713554221 -0.27600021105455697 0.43892459062734085 0.1262661049198019 -0.1875223806271222 0.2292236170206504 -0.4886461262221843 0.24345441590805172 -0.656834582407385 0.5831627066445311 1.7294515129976924 1.043177285172952 -0.398635661200307 0.6565887849451659 -0.2873770854329309 0.30929882520668667 -2.6728537975628353 0.17970545568586468 -0.3955351678981123 -0.3690013832736419 -0.41396843490263546 0.017982552620349677 -0.34790471050434274 -0.29641579859643147 0.01018773916627923 0.5209376392660383 -0.15692805278003297 -0.24980838315053752 -0.48873842882567436 0.15040516405985066 -0.16534018810312814 0.40970348897869435 -1.0279478698177071 0.23247297719588347 0.5771702365065221 0.07077887048577489 -0.0686602814808753 -0.801974127192922 0.37183628161927573 0.2378147011237711 0.4891480055592672 -0.23978570880721284 -0.013825078808550382 0.17871789496161478 0.5275785416213237 -0.11692888667927605 0.06651932387847254 -0.24032281225760546 0.03657239980739508 0.21870394843624913 0.05206638167793613 -0.16031650963629165 -0.0910928994527786 -0.2014834707929046 0.96001958140685 0.7768498213214685 -0.021809125455291473 0.5046018782204923 -0.5711345718354034 0.5469147800560904 -1.1459807881944395 0.6646301671924038 -0.8932668013613325 1.6496575834975007 -0.18477335712707532 0.716868812782146 -0.2249332171754126 0.5079797935537896 0.251266969973935 -1.0226560252911485 -0.3973747922100124 -1.577049116002155 -0.06497434798885585 -0.4840649346094051 0.9842650842177758 0.15272121378753697 0.8369552712537973 0.39498675159381 0.24072056191665642 0.25637292374193266 0.9557194113695991 0.9771397860269042 0.3446072706999936 0.2795984699287765 -0.8809283344006377 -0.3959861393926019 -0.9673027453318244 -0.09924843868037746 0.0801615972522555 -1.8539124463879555 -0.5219694229646623 0.6911919768413322 0.9429202027224018 0.9042199579387267 -0.19831021527124557 0.45072878235112057 -0.35525883687656884 -0.6630098579801614 1.9857426756590963 -1.6393194347962865 -2.014978946816394 -1.03739487416322 0.5593020979768497 0.36101193731026215 -0.10657813957257127 0.24229896214736982 1.9291110432079808 -0.8815600544473657 0.9340398695136365 -1.2707381697791986 0.0765653952605649 -0.29976054669894825 1.0141880970294532 0.8820254241195584 -0.812695113154852 0.10012878440280176 -0.14778983792419062 0.5787643204665194 0.7548782021463838 -0.19701926437396391 0.023632808927591557 0.5229040189637898 -0.03984232880791848 -1.028195467052139 -1.9082699380929136 -0.20171384163615586 -1.1873804341871488 0.7734263974622164 -0.24331506211671 0.33178929299971893 -0.7030452766354924 -0.11521730330480803 0.8302331220386154 0.19802559415129123 0.01805480061918181 0.6422692829987003 -0.885313865062843 -0.4004405756195297 -0.572585188239001 0.41194266272185837 -0.5970075829474235 0.393437147718503 0.20607288993579992 -0.855691671321036 0.25715505332359584 -0.01757220455580845 0.12960545370568002 -0.45592703872260837 0.32528517333261403 0.7961369516858546 -0.3265298443729925 -0.004654982273508112 1.712936546061805 1.3799300928255331 2.0400148067390997 -1.680531133147906 -1.053815224502772 0.553622016872937 -0.18548375293053862 -0.5942683296393895 -2.424981455092746 1.192977211548636 0.40603169655406196 0.9079208038290815 -0.4586472658672488 -0.5247714111898316 0.2321302491444841 -0.24450162622564345 -0.02985924945327761 -1.1674752106227893 -0.4177150464292612 0.22086958862900025 -0.3627263488982076 0.41727898733310714 -0.39179729812223496 0.4894470248569249 0.10578392580605007 -0.057290349081036814 -0.010313466110866108 -0.9675724540534433 0.3264074598625153 -0.3967944942265102 0.7878690552501076 0.11599891866583893 -0.0683401791372952 0.050999116755686365 -0.25110216226129656 -0.28136404646963153 -1.2110541236550045 1.1955519142543474 -0.5314166844204913 0.3634436866802063 -1.8585044366340122 1.0898854878627682 0.7468774433290943 0.8769061006151221 -1.1742667796233262 0.32957608739848404 0.3356811718549574 -0.018611701563916335 -0.3995987964445247 0.07790751111075615 -0.3121380944276947 -0.3952376912623516 -0.168079184300846 0.5050029703136528 1.1469156413038828 0.18110542135718488 -0.44196029212987115 -0.76212074264141 -0.40058687138940685 0.48647560093342673 -0.2722962798404085 0.18110362158497198 0.005206483901603936 -0.6677622850634822 -0.9562649994604242 0.549445516897744 0.5100891265873086 0.41517993871223335 -0.3673538203678899 0.4714693573325816 0.4697276920511266 -0.34884573426137344 -0.31234378268059754 0.839354367613593 0.13532358713637982 0.341804768254192 -0.14805491866011922 0.2014536459962337 0.5058673751964772 -0.14439880996477067 -0.029283836565781825 -0.026563095200509094 0.5326850096099536 -0.12002603754736105 -0.14325338350641778 -1.2756600325608483 -0.19586689593707557 0.4227448955436849 0.32340235448760435 -0.01987539876768835 -0.4032261087844668 0.21878493818582967 -0.325463093671375 0.7387378449410954 0.03996368487713117 0.1574075635196128 0.4193389551859295 -0.11055383639086766 -0.14275664637565738 1.084802674023222 0.4125481575163411 -0.024125946513926192 -0.6301334189671147 -0.007765759988347915 0.1771739475132626 -0.0992738926016742 -0.3764730090603387 -0.48775986696248896 -0.28171474494083093 0.4324351262482552 -0.14826112113365436 0.17454139498642196 -0.5337705293646484 0.36091397827981714 0.0914345990629135 0.170462596931358 0.11788739393780343 0.3816697227699298 -1.5032134609679273 0.3894946181309873 -0.3332396522930003 0.7004019254753744 0.14304332437814074 0.07427274257164627 0.506808656063824 -0.9972746091035662 -1.5039063732698938 0.5186624700786164 0.35739850892739095 0.2718612491855189 0.37655656991308045 -0.5170696716701998 1.0201211746844365 -0.6332665652794578 -0.13872309973623206 -1.2475020820693934 -1.497660649470498 0.2869520820803703 0.467739200866188 0.3383173239262238 -0.08978317950241957 0.348487065370374 0.9772248895415427 -0.18494150727382344 -0.6049890584910032 0.3711081452039996 0.5188326771078935 0.5671673596575394 0.43524919865828265 -0.3777626744060397 0.15133076119791358 -0.5806440539877354 0.04870466429455483 -0.4874611047751476 -1.0574651625505336 -1.3541576118471195 0.7411114873795946 0.6515386241157682 0.8204313054568451 -0.2404004595730763 0.8118988425058018 0.497831135155562 2.6510215321790924 1.4146484701433248 0.7768801603387717 -1.9128305608804026 -1.139456099702044 -0.9248180938050524 -0.67352438435824 0.0852580379385564 0.2954405791673557 0.22511705105144456 -0.03025468511948338 0.6219570538039095 0.19664259776083554 0.31808814136354246 0.2514762577712637 -0.5444624618608558 -0.3530248053397275 -1.2099387791036387 -1.5298030385309977 0.6122089732782102 -0.4090152046624182 1.2663822068033481 -0.6024395525962721 0.039883980679131306 0.10858488558995494 0.6743517653555419 0.5259595179606619 0.21806322952845672 0.7098432733939323 1.428832989173823 0.14780346477094544 -0.4296866169688406 -0.5725725898335106 -0.03691101409373643 -0.6186534433519731 -0.5819239491414235 -0.3323425944000276 0.5530586881702992 0.4272055024181997 0.09894864805177152 -0.6100405048719816 0.3300481419388961 -0.03728151005927773 0.2690330357081044 -0.8207249254378639 1.1176140641262884 0.6605493122548108 0.9434773607774525 -0.16991598039926864 -0.3105213847598781 -1.182332587350596 -1.191385955802116 -0.3410851164793481 -0.2895596949065465 0.8964521410678497 -0.5902715497751705 0.20120193499674383 -0.09624101931262136 0.6069785781172063 -0.2451364315961649 -0.3401574624587561 0.12713385223673587 -0.15236588733064726 0.13984975714150755 -0.15121917532071374 0.6942942699157397 0.20804415472955784 0.05536664969576271 -0.6636595757490183 0.09759804756114805 -0.18992944740671805 -0.1880052338008117 0.8056641744499995 0.24705010367911 0.22886700501218002 -0.5405042485440562 0.1425023642730062 0.12117377799855907 0.1238155864967803 0.07717423248915742 -0.16790049263113666 0.6523539209282121 0.5947858927057563 3.5460670227074025 0.4719375552182517 0.1923984777725009 -2.8078297715518095 -0.483761030215741 -0.48896982811019013 -0.7226134285754071 -1.602730322818343 -0.7157897207853543 0.12471444416196585 0.6568520659088817 0.4834743522132577 0.5307949916760922 0.9756981684843713 0.3482978321777034 -0.40114968587141236 -0.001398423009423398 -0.3461406766253845 0.1509011298596627 -0.0992846912349516 0.08560590819627838 -0.1595022412651124 0.48910943901184795 0.08769235841166188 0.10782692437800785 1.1237104068320132 3.0580564731866886 -0.2804016825563623 -0.911792885189978 -1.5082044864246156 0.9938468143689401 0.3653239344220547 -1.889166384494243 -1.046028895689134