20.861899667008373 0.0 0.0 0.0 20.861899667008373 0.0 0.0 0.0 20.861899667008373
20.81268724498591 0.0 0.0 0.0 20.81268724498591 0.0 0.0 0.0 20.81268724498591
20.84499563026473 0.0 0.0 0.0 20.84499563026473 0.0 0.0 0.0 20.84499563026473
20.752309713044397 0.0 0.0 0.0 20.752309713044397 0.0 0.0 0.0 20.752309713044397
20.767458998165143 0.0 0.0 0.0 20.767458998165143 0.0 0.0 0.0 20.767458998165143
20.89709524313597 0.0 0.0 0.0 20.89709524313597 0.0 0.0 0.0 20.89709524313597
20.833198153581694 0.0 0.0 0.0 20.833198153581694 0.0 0.0 0.0 20.833198153581694
20.833777073447635 0.0 0.0 0.0 20.833777073447635 0.0 0.0 0.0 20.833777073447635
20.758343391574044 0.0 0.0 0.0 20.758343391574044 0.0 0.0 0.0 20.758343391574044
20.93094141738226 0.0 0.0 0.0 20.93094141738226 0.0 0.0 0.0 20.93094141738226
