19.551083925231236 5.0958736459611345 0.38830462469199356 20.044092338161978 4.34019305432309 0.07385529720114303 18.681059261518318 5.040151511950555 20.75660965938898 2.4947911335788633 12.239488777536808 0.6449080767861632 15.982509953891784 16.351911611295503 12.9572632974799 16.63517448497414 5.721563740774049 7.259127470031901 17.206477607355165 5.445665117677864 17.24277731277576 16.489829629994095 3.512372013636531 20.523144140215493 12.434923053617345 7.595337845065407 1.4865084022027817 19.045370615403286 16.463355879316662 14.684148766215852 19.16082036816051 17.4588857314263 14.716714191596052 5.782417902102712 0.2486717578407731 1.3041566234034279 20.634004275045974 3.3443711356181125 19.654517223780264 11.873070371785476 2.474742847998868 11.686377231665416 20.49135060512297 3.8816067758429122 18.855423018935173 15.084175692330739 15.744851192885225 20.300255604173174 2.1971335491299877 4.573533402098579 1.4683168256931503 14.361874140159905 15.764690859468551 0.11534961563882269 16.156143544820296 2.5749634139991766 20.71394707456995 17.103190342103808 6.326850897712631 16.78464999608826 16.842604353363207 4.827234963949068 16.498070080362563 4.717334476503267 10.834168630268124 3.8371292057528503 5.378156010355426 10.209855420833232 3.4588612409906543 3.8417188236795923 10.719323872601244 3.4367059035442913 19.684787840197092 10.653379407753828 14.639629472326456 20.362653546077194 10.945341693593614 15.307272847369726 18.57134653116952 10.331438572092557 10.867401636437668 15.143068835090702 4.4631530909604376 10.83957186228188 14.472692551191054 9.341937808986682 12.84093734493666 14.613760716739366 5.0005973501819065 10.161768742100778 4.965862287236338 7.053053625121192 14.603434076404197 15.296299488144879 7.844199446193151 17.991698648921695 4.178534193803442 7.2896067054454 14.056414205235571 0.0829531716459254 15.617718776314476 16.38685529323774 0.31913699634602727 16.455803871637205 16.842646077162538 9.960367962715479 12.057781631437166 5.7384201557049925 3.391101790872211 0.35840952246917057 18.356385517000668 4.117408827779108 1.0504133377536051 18.255267889314677 2.733430403869772 0.6319486647130176 17.685466823709678 14.71224974506731 17.688825589556068 3.345455954400797 14.49184377508537 17.366217173105447 4.2247850253651995 18.545290018485428 1.8416780716536656 11.189759710092282 17.437606593765953 6.323679888963245 7.346142453542993 17.597137540519565 6.673283603582972 6.428573520488963 6.490449914901309 16.39507488170654 6.657970969227388 8.255053698235214 15.011659729088217 11.641941385374688 8.687395706934295 15.80480829252821 11.886150782876689 20.408841791939953 11.850435210646772 20.089362660439384 9.91057060821033 13.151883959473421 12.708964967643167 9.622446911909277 12.23368916942938 12.497174962223697 7.049194173682795 18.6046838468374 10.65296216976049 17.895525291456785 0.5914411141295874 0.2869491713498001 18.116160742335065 0.7076168609952237 1.2551582796555254 16.144857257100444 7.744750770480521 13.075341649595167 5.346779713256244 10.26566100244248 10.522846501537359 5.622553164954428 10.703239347957979 11.3780592164867 4.517811268087999 9.805802148082615 10.672301150751808 9.021060930208428 10.55958430685096 12.378575062616756 15.80585138751156 2.260094762325019 19.875569912651883 9.431393634758814 10.2689363206902 11.589327674414493 8.733771709894054 1.470578255617054 11.102264902888848 7.837732257296377 1.8025244583586244 11.379602997062058 8.51901931472187 0.9700240935767551 10.236892442801675 8.015204437763618 18.916214594564835 5.195218012175428 13.865402651884441 15.101365897656352 5.837868831417621 7.377706507739176 19.611187058171886 5.518264528519054 1.4157364937724224 3.6338299934978537 6.0479481610643955 4.340964944610769 15.482930042565936 15.034420061624921 10.46864728620247 18.022511674729866 1.8553593054552897 3.620290620613965 9.067958480659861 18.57551891110292 3.8334366495117895 8.372318436263466 19.254281678668708 4.32736298602788 8.959747807087089 17.936372891004787 4.166329982498242 19.612188429355903 3.673571912363504 4.269283457354929 19.93627804068288 2.710670071333066 3.263781617204459 19.687562472852804 3.978447714097165 20.06883455116705 12.493190339387299 12.457161838662374 20.0272567851307 13.40160089848751 12.684619130731768 19.96661124279871 11.870692115223434 13.206917650794988 11.458210635007346 11.698205928776611 2.2336418735472523 15.714142476575388 1.076090163863759 17.023226680680164 10.68677930912071 12.279439315399129 2.5384968133812458 9.199951719853024 11.1196220034118 17.16398191773347 9.26921322674749 11.916671742089521 16.568061753745376 8.993252017952305 11.543368909448075 18.06056377972249 14.950450915465215 4.809022525539769 13.82113370079105 20.038897725144892 7.730481231108288 13.084896399642655 15.634742086442754 4.309254857116916 14.31491400400947 0.7287353620281363 6.461138945869163 16.14606724728113 0.4465197557127804 6.704826795879487 15.278671182926256 18.139234003366777 11.260189483368103 20.14245619509192 8.082880440283393 3.311722262639244 2.230220522001863 14.859326137719721 12.964418929065683 14.363981192026275 8.419946153203249 3.610464665870804 1.3201577004480234 12.574760367085302 5.932936508200179 17.46462275383473 13.28243772758956 6.614765975017013 17.567158990698072 11.839941675114265 6.271566863595058 18.00561353599959 19.42086394750977 2.981791319405507 12.18906556604165 19.456037110348344 2.961743033825512 13.14625124656333 19.367979031853906 15.074975594577587 9.663273649557613 15.399524167697235 2.505868802302045 5.768586462623486 18.218133707907402 9.301486585532352 0.46978077384149475 16.284110437377723 2.469673406379785 5.419754638291439 14.367736333966334 5.951858251198154 1.8998347893553849 10.596697626358567 10.01719577740841 7.702338528457493 3.8916413495827427 1.7375312961360263 6.147855798569698 1.1041681946255857 8.294211483910189 18.06886681578996 2.032560281226859 8.54747494586767 18.30740177658253 0.6059401343981583 7.90340551744812 18.817183156845548 20.744822686077125 8.145507863083752 13.636276407841688 11.551651083615877 8.350622060609778 2.4221917227376744 20.244303989266257 8.865159953996873 14.06219295144333 19.882370891943328 14.514395488625405 18.853545447965143 19.851620451834158 15.246669028837065 19.49442300573564 20.334343948229066 14.802039361234115 17.991197963329686 14.059647799683955 1.4021846037487338 3.67862049208292 14.400030554650863 2.01410793097139 4.381958577456441 14.799035247682067 0.7754514139524682 3.518943512031638 6.952061168833204 12.929245766227108 1.58287786152456 6.969418269356155 12.109581728310348 1.1095547371196073 6.948431198291145 13.628536643065228 0.8827379053699921 12.583543226845112 3.065572708468212 18.103351535939524 11.854607590580173 2.6565543035968466 17.541707473104324 12.825270058286739 3.966744188383973 17.836110601205146 10.771749826464436 20.52942357201526 8.925826358228534 11.590767145491515 1.3833671702490922 13.601124106902779 9.887872861372625 20.82566254728678 8.745370926108912 12.450319135571597 15.871628957161635 14.759272466916748 12.471702582730279 15.188568638264446 15.46315296168161 11.62992493116649 16.29114089756551 14.978677065714676 10.903179794366588 17.232221191544255 1.4673175406991006 18.822836731655308 16.376695548099907 10.346938963545144 10.572539546544172 16.582310431217945 2.088338742366539 0.9357959747930945 6.250392035433045 9.440656318210966 0.10424482644607415 5.698865993936344 9.253525078197901 0.5360360809939466 7.10829593543943 9.66433760644063 10.683754333668993 11.164975773287876 10.340492636548039 14.123401765066333 11.583778409103068 12.590677996531229 11.159113579481447 10.287941511286844 10.523514082326702 12.263041862260861 14.320421545521562 12.444623836962505 13.060279358035586 13.71073252775324 12.39881110529375 12.272367131412015 14.756727315157374 13.33667866672378 1.951814298565703 12.109623452109684 12.510317959013912 2.3662818316300918 12.946123043057717 12.196283783326436 1.0244965997972806 12.05204460902874 12.10922707601601 12.685370159119781 13.747240852170506 16.378239328675267 12.727239991751466 13.547237820062897 17.344792002147432 12.428226383824233 12.911075051617143 15.964026310786815 18.458629687268676 11.91612933269818 5.770025933700509 19.162697939130542 9.183011857323413 7.35557203219248 18.93732683702785 11.15921788897978 6.163460499520621 5.278123201452119 19.48507687468482 13.469777586599294 14.286041134870331 7.4117739898954005 4.6456112654480926 5.391904002235983 19.042470811349574 14.314747108812133 0.3216049590766344 5.6066355355085005 4.27541685585703 1.252873901641988 4.0875554493556185 5.194446121887749 20.33102690618201 5.385561984737213 3.8836721039099458 4.770135944560465 5.947685871264754 10.426360215577445 5.283255228770203 5.147986671329321 10.099078733601418 3.9109594686743927 5.526922216880862 10.733572550073811 0.6730716413366246 19.490271487701907 15.20214973494767 0.9479480313491269 18.861556417437274 15.913206723197984 13.419938508294813 6.56596999169588 8.526154084407986 10.553221427452522 1.7331795038654887 16.441137956171296 10.872179011461414 1.313773959149919 15.571155016257714 10.102249742350804 2.5273565589590636 16.19014844127752 9.073403436472951 11.758267337917928 5.341877166834497 8.410078474660752 11.927603377515036 6.062676662229303 1.2651156643665886 1.9362784418836818 11.174801728031037 12.545032160059815 9.40247904182034 18.684418027364707 12.419589557362093 9.884534957425904 17.822112266528585 12.216853616398105 9.97674455395408 19.447525455284207 19.351581578715635 19.01338932321376 7.847558212039538 19.434465906092658 19.928600861605418 8.057908746381983 1.3221041156869553 10.15177589216028 2.70847957186803 5.423342885034164 1.3991095597378165 14.017736243252937 4.578289915222657 1.7722434109919618 14.32369686376928 14.16944397763142 9.218831739051666 2.98058132922482 0.7259795050821245 9.38324437032736 9.374857886661223 0.2963975257089882 9.628893238906382 8.506377003523664 20.813354026483246 9.479876689584943 9.94242672900185 8.836224499158732 12.082273501646235 19.53487422918997 8.33011481323711 11.635787124972921 20.227760502830318 8.851724890611319 13.062365548002287 19.776830541527936 11.57722777260763 16.442932079542658 10.768954331909057 10.8979225956505 16.775595931632775 11.375493202827657 12.059867821403866 15.701917403370523 11.185399573061877 1.9180847791840838 14.567447299478607 2.0490078029243284 1.8730126449535123 5.84756961476278 10.857179305600834 2.118400739786698 14.33583848937548 2.9923891644363474 17.962053889494875 11.932547647736115 2.2786201292293224 1.0364379511666764 13.17330913043144 8.058033917779985 17.923000413318235 11.193014166440337 2.9092336323636516 11.563104266533065 0.7713082406786003 14.303940644784623 10.812242773718099 0.19193990788631055 14.101121256221967 8.613899234407425 14.897858066404686 0.30890423455935967 18.532439088290552 0.3308509530090525 16.180677138828695 18.918259060732204 20.4666709778169 15.597858247831484 17.542229020596 0.5563305369900124 15.970159709288916 3.306110411628819 0.9579450536695573 8.88952665280794 2.944344209503227 1.101817058533114 7.955163890521969 3.4095854339771803 20.837991929989983 8.86336583062551 19.587091564056493 0.7845951845765179 8.436990325231193 20.409738853625633 1.0890433173670047 8.847573372577585 20.847171165843466 16.937630306346428 9.45102468234547 5.074448475003117 2.756274184005146 9.538206561053897 4.952907047543126 3.3297052201522055 8.700058880032168 4.413856422047297 2.061660545072369 9.419690109045622 9.269922531336169 13.367804621026957 3.179061442656738 8.485535965756322 13.134172206656132 2.6547810421251508 9.113854659927279 12.745243811164093 3.8854245034819743 1.5999116026026723 16.210822583847524 12.743825201986738 1.8332415194283274 15.648406630724645 13.51158483353198 14.830891368473589 16.37060387339714 19.58830155423718 18.111884052903328 11.865539226005684 11.090206724881318 18.441397758143726 12.32045381014447 10.291821824624908 18.861222627042604 12.139184763937834 11.671711316199508 2.810765465935372 9.717827517186839 11.217923274642743 2.1579131777560123 9.685408125104308 10.508493514566457 2.6403446075555808 10.568700957005444 11.715416996001892 16.109058237271856 19.74687285360611 0.7308653619841379 6.8227799765967525 19.47064044011525 20.24630673163429 2.952793278868365 14.397339369593821 5.0993158594061905 15.614276562869419 16.64466664932263 12.030431680973718 18.858218513490552 10.887262164920662 15.110565995409504 15.424266380702308 15.804265883136864 11.554237959174586 2.103129829230448 17.793948701978124 6.9822900614506995 2.3937360915918746 16.85470425517007 6.8561381541643 1.544871652711204 17.765534794631655 7.798324128825399 2.480646765604632 14.642758757276507 15.431380288488757 1.6453968024466505 14.87322016289795 15.848117596236918 10.96572376956828 8.31797318763091 10.797243067857519 10.136567567303032 20.094661582954807 1.922720293290093 16.653658128079112 11.888612487037397 15.792708390721343 10.564173924777702 20.39636637593908 1.0869008002712028 18.19639560845438 7.288688781860052 12.463921094154486 18.52267571924639 7.946005516568151 11.842862341067647 18.152377000156992 6.399199965757815 12.034541475208119 5.609368444364878 17.340223246120356 3.4237089400517453 6.608173614722238 17.622943710407654 3.1043132561498465 5.013948965968792 18.1364385088114 3.3519231432975696 15.362431710089295 4.844153964579011 6.774672435964632 14.658280010628761 4.978421150835877 7.455604841095785 15.148931028897133 10.029003612619936 4.8409829558296265 15.843945216303515 20.240215056931522 3.3293088440585326 16.72569426762929 20.67186862294159 3.4455096252037687 15.839772836370114 20.02481594286966 2.354870372512238 11.094087038219381 15.256787050175562 8.462337533326608 11.262776358926812 15.82961309123228 7.67732511075675 11.154962061447712 15.861510935823137 9.263538790038066 2.681379964200586 7.9998500796086995 13.078783863040224 18.628174345862455 2.865778295357273 5.406528193902556 8.759494432183475 5.182784319973891 4.541823314604726 12.65662246137864 18.827739278077054 10.062257480689148 15.610625730427692 9.965875504227569 7.19902433709125 12.15942080661483 18.025453202582916 10.244027212487792 17.517987493182936 7.0271640076344335 4.778021742634595 14.838735442748384 18.67636533409324 3.4034520354750804 16.54271454564996 7.071954506219501 4.59583477284261 13.143267994910946 8.108832643469151 8.649886011333013 14.007576498115103 8.632362015612726 8.663195903320565 12.607033725870163 8.69711735217912 8.02440453551677 11.46828693254651 9.776866693244473 7.235511799608847 11.952116109623768 10.616516431042227 7.0524277681311816 16.511442558049115 16.89465479303239 3.781281900344269 19.94024180161961 9.673516842294115 7.0314198351665045 20.3852887072159 9.126726452021824 6.344041103038245 18.067844582706275 14.742311742487471 3.8053356706603294 10.652649241265486 7.55090199877468 18.87052703429409 11.290606133082601 8.347033813867053 18.84799618265372 9.901954643647855 7.915901795348658 18.396836740454997 1.9698661003475653 20.06253425746761 5.301864043273175 2.3745222819985603 20.860418472132015 5.692920352531247 1.9801635340232004 19.359509100589097 5.986447280846055 4.985222130127322 0.4241432821299472 1.8152147519260657 15.879180964841092 8.109270743362158 15.568901931093675 4.358238597535053 0.8927349276904225 1.2313256454759351 20.303927298514566 15.299950320586605 1.9220089025114482 0.35763137361159114 14.960339455907375 1.8635288253648903 20.305012117297252 15.860113188545446 1.1224536496837185 16.827688095101294 18.262027144806787 8.017082008733649 17.708018537249714 18.636519105729256 7.792816587313309 17.018282410459083 17.916720981518466 8.920339678616111 6.545692225219549 14.88799038786219 20.482672054861496 5.700680979207374 15.146365015238088 0.065794259169811 5.92838861407277 2.814708364972437 11.019505746909827 8.558865543085856 9.321931247206022 4.6194921670649975 8.614817157992773 10.198485685514711 5.038294802880191 0.6110867650460092 19.28117266733948 20.21805971948516 18.500520381800026 4.7965053857395645 3.0925054209383203 18.854254752553825 4.930793433896097 2.1608755675087274 17.997686014126124 5.5966426855680025 3.2831414600954423 11.94694235850635 10.95798400479182 16.323143051654696 16.45442698625918 18.83502008106084 0.7117746375988585 11.034755795566412 11.071952562672687 16.6631502924276 3.030733336024308 13.604232529953164 4.495092659350627 6.449560591553974 12.409617569321263 7.5737457789100535 3.9804921802645317 13.436982680322757 4.33385103682432 19.85299733721218 16.67687742240849 20.383014760152196 18.987583153325673 16.97947927707845 20.63786372648437 11.836958423461883 12.272075064816677 9.240569838504689 6.931220131065863 10.555933474409233 0.14867650035686858 7.107398873753748 9.584499116414989 0.008926806867512883 18.357804126178024 12.789679657454823 2.6250528350996634 5.555148367130324 8.943412939647821 16.767689271658977 9.54892957748274 16.79099201358703 13.322429989251214 5.346362475262904 8.264066038891361 16.078725035156026 0.6422523569585531 17.629097970809422 9.153262788398258 10.617142288032236 16.265126108680747 5.27303289793337 10.580341897019633 8.537398648328505 14.35298697090176 12.277269677833761 8.549874064329375 14.49497306003542 12.605740288090807 7.656421487290409 14.504840738577915 12.871896404042502 9.02327229157313 13.913489330616896 9.789696761539684 6.468336301254282 0.26676319723200276 10.083453170750829 6.858182620331666 20.306117797979603 10.342182450421065 6.830498879473547 0.9514945542925184 17.15136046843493 4.931523600384442 19.80747667213877 10.751430336188768 6.316211328882456 7.79532001527335 17.165630007807163 5.048079033824018 18.825715673809356 19.50364396538846 0.7264468116346654 18.833455438585816 18.91419099029714 0.5185851019224942 19.551918401217918 20.12107274793324 18.569927921992168 8.228809428454117 2.315211901245255 3.3950655518089428 20.635047370029323 1.3830458969942203 3.4180970890413196 20.292599286995383 2.937814434907453 3.4772405745972885 19.837789012354932 0.7527244604552291 8.028806396346507 4.9955487704624915 1.7031154202553629 7.9223063985464295 5.361883728615158 0.424883879568126 7.186736678187382 4.645006270357749 14.454354941383755 0.5580078337232398 7.437580159783491 9.960576581712148 10.933179206087747 9.67115944763174 19.682409583635053 14.810884806692929 5.3562927395044 2.298877033805988 7.592667521908031 1.1497848244374662 1.3720099520703728 7.695996510958723 0.8062915602302066 2.848400332934655 7.397650483820836 0.4251237914142966 14.591897445888339 7.623960371408543 18.650141926211813 7.793880544196326 6.107508884613704 12.78703019619711 13.993035754047197 8.396226173281859 18.633577577876206 7.183899459832669 1.63070793889111 16.021417396770754 6.615287522508688 1.5601675975470548 15.217191164607582 7.284975363719324 5.231914093689696 18.045459764363574 2.594135499793157 11.65825539091429 15.077645917734964 1.864277767562936 11.266051677174532 15.550626906985377 2.184553823630782 11.698664890569285 14.208226249112391 18.60049060500433 0.6820047067740376 2.9710891648763313 19.476356600624012 0.33829447881024105 3.219658699408736 18.47594506399229 1.4336297451168154 3.5514672136125043 19.4042787372745 18.260525088030764 4.732730558457519 19.31048363637163 18.88327365499063 5.4694059594989195 19.96640262380204 17.514962517731217 5.0830227157662575 3.182378484703792 14.300665326536903 11.491422779277224 4.097214508901443 14.387638586248661 11.767071059577406 5.252859440955373 0.4450635951160232 13.88793350352481 19.62871105389217 15.842505745226493 10.19341624389563 11.71877576184828 12.171103470428354 20.026526618642357 2.6606640978312472 8.61873919513017 12.304390147400873 2.080757528027548 5.222234172244204 2.216973215713313 3.4315738762262074 18.591019302555512 7.723116980525833 16.60229613109894 12.71466026625226 5.966440719065393 19.014036042103438 9.44105269430464 10.75380859275081 15.307898704359735 6.644410734443832 0.8667722935548305 19.019710478812865 12.624015312199107 5.444517713196179 6.572562351990656 18.623480418437378 20.66364903447279 5.642246798240084 18.411836446315576 20.59903973120407 15.088264624665472 12.381912966563476 1.5300284110981277 9.504180802697006 4.610166897913845 4.142067593185511 1.0365777258944453 5.455470210521358 3.5507161852244917 10.329623586821526 5.129523890124019 3.983558879515582 8.722255941277865 6.397802218480126 12.720000912567015 15.243414572489014 3.93866407143218 6.374562062251078 9.211989035960888 5.6080124208865225 12.940281711150956 19.98766089956272 15.006319082773462 12.738734898467987 19.644002826348093 15.634825534041424 13.375419214405415 9.220897067118699 7.800848418685106 13.804903142850117 4.247774838798243 16.033809365172957 1.1639375371715648 8.092059676136877 1.5525133665592294 1.8189657214861936 4.779336042313616 16.31406812529955 1.9004669049152951 14.802936422919798 19.421156014105108 11.989250291031043 14.036115576859572 19.624851602453777 11.372822879670279 14.918573932774025 18.44262861022408 11.822209060397308 9.503408912409327 19.90425502469402 13.414514414381388 15.099029364893648 12.821869568641015 12.132571541743392 8.85026455763463 19.75849293172063 14.18200284123096 7.401635106657235 12.486660564791526 7.609836865333978 7.702693180751833 13.283522546372243 8.117594641329294 8.101259773890028 3.2377251045203654 7.663597980775858 18.735613129147545 14.054202843870867 3.8006208813355857 19.346282656200216 14.467664833371307 3.1225256945591453 8.517851048340518 7.923537250626783 10.177102238356028 5.271197050762672 15.591599677931383 14.973023490904918 8.699015785048818 3.8475392936866872 2.8158557694541226 1.7998416180614472 4.390678851517251 6.5409774358948045 0.2886327266529276 12.423615903997824 19.838247974147606 11.45518565955563 11.618346576851302 1.240838671724091 20.718286349700687 13.310726463538023 19.521251408707414 6.071876759982454 5.5308233921185925 12.568939897078206 19.028701957569346 0.6130373526648745 17.95519032450443 6.186179108257993 4.54981342217719 12.354437844702025 4.573053578406237 11.739867142411626 8.473123135454452 4.368377480773218 11.033191153091384 7.758436176662078 4.6755689533699165 11.218382236435419 9.358731638218623 7.806147341200528 18.010641253819337 2.2990439290033238 7.452600727543737 18.313889827378972 1.4166189521283368 8.298947135134599 18.746336145576386 2.6752882894978196 18.102788264648513 9.369663273644138 3.612550855837505 18.154463190123693 8.997737326380712 2.686970953311344 8.060266141044357 20.76205461520207 15.89536979898269 1.6486762930743044 11.77428927686219 5.536518690727685 10.713837192988821 19.79533504653257 6.9527287496225485 1.1003129155671225 12.333847149730689 6.173599382758787 9.14990402255187 13.295163486386434 15.403571376232636 8.180055168932318 13.198864957523522 15.505544341804972 9.294059749250899 13.061531072015606 14.436914393262137 2.8948597834930827 13.789298441899195 8.63805731422182 3.5515089374118385 12.992478184117811 8.398416672746894 3.0920255972459794 14.087602745237746 9.587232025271367 9.298816262374977 3.9992470280651724 20.780079296514366 9.537392946966884 4.940765421936927 0.013718785221024708 10.12269440402447 3.530167214052489 20.734892421835628 15.604179403430587 9.849820756380002 8.1585674122753 16.970091422228293 17.126639117329525 11.089580867891309 15.595271372272775 10.755999092215843 8.513470049410445 15.513847377872441 0.529038999845632 10.121943375636459 15.515182539451128 20.839640020063673 10.950285963814693 16.4333564675955 0.7914545771870303 10.113744649067323 3.224352626833813 4.821393632042305 15.9467109340632 2.2810401095906956 5.207297052082626 16.055192812331644 3.7708926743100983 5.614354438385294 15.65220349646404 11.2377420793264 2.556229428098203 12.416856648505714 10.382967464270067 2.290115035945844 12.079123354796515 6.139281557806558 10.83761084371318 20.50925011503726 14.78904239774157 6.565573615602207 4.496865920822323 14.802936422919798 5.988679504110425 5.322204395448509 5.087737505091002 18.475715583095955 16.45317527227916 4.036965342663123 6.7820992722460876 20.015553259417512 4.688461607364127 6.330460006355023 20.652487918150943 3.911063778172728 6.094741402017495 19.271179817398984 6.771522289114913 18.927855534579027 8.911932333050306 5.2938322119013765 6.269731016424362 14.103019689091667 5.843480682428046 19.13912399250682 8.860111374277457 11.48243130052074 0.5423217713636163 3.980617351662534 14.967453363693826 4.588595693658159 12.83983166425431 12.4425376469958 16.541504555469274 1.5351625246061784 18.128177196543263 1.0731152569712437 10.810302617049066 18.710599711446804 0.8360468877252607 10.085455913118862 7.749611593102935 2.411719049104836 15.778251094252106 3.816955748774853 4.516517830308644 18.606665727305767 4.672648287416536 4.038467399439148 18.508134975178486 20.326520735853936 3.2207017943920864 11.95232472862044 15.123250030407043 13.371330282070682 15.226391262360734 14.724871194365852 3.572704627473519 10.795282049288822 14.335734179877145 13.498316665343763 15.718064513712788 8.00660933510081 2.444659988679042 7.150520420365455 8.696804423684116 2.4968564616458973 6.433851581104716 11.537026891949305 0.7030856563875495 20.345505064550913 4.370505394539253 11.306252557832858 19.801322411737 3.6680226470520805 11.550190750639185 20.431706433974995 2.0436838461293076 1.7858662314745184 15.379496744016908 10.23854053287537 2.424674288798048 5.498195381039391 9.926383928157922 3.1537976821599907 4.924096764102988 10.693350807515817 1.8696017243579564 4.905300192503013 3.8084649556103805 10.4459912631641 6.423608388368215 4.387633014165867 10.549007323719787 5.613665995696283 2.944344209503227 10.847979207847683 6.108531117697388 0.6108531117697388 19.672354147995556 11.042370388944867 1.1801680951124973 19.44798441707688 11.771076544313472 0.8402359571783959 20.656868917081017 10.84633111777399 8.36086525334628 16.797897302376807 19.264399700007207 7.803497879942817 16.046785466765837 19.421573252098447 7.843344108306803 17.544607277158036 19.529950820868557 18.209267400548924 8.465237337380323 1.0291237691434232 17.477139893634934 7.8983777996283715 0.7458817573644505 11.428837080276198 5.135532117228117 14.046337907696406 1.248626418869785 3.175431472114678 12.382476237854485 1.733544587109661 4.054969162075751 12.305057728190215 1.5962378220713123 2.6546350088274813 13.080431953113917 17.9208724995522 8.691234296473024 8.159381026362313 17.158662133318384 9.292244763979868 8.247105314462083 17.522097287417335 7.787163012503549 7.8963124715613375 12.710091510225185 13.870472093503524 19.024195787241272 12.26681786610059 14.649184222373945 19.388256798330236 13.610908337846606 13.825848490115792 19.38667129395554 13.64080344006943 17.78343430454595 18.661553385329665 12.821723535343347 17.16711120268352 18.74072429456596 13.796328902086977 17.754248506911807 17.665460261929017 9.675269241866141 16.085546876347138 15.06435688764708 9.502991674415988 15.184104191735708 15.368210456297057 9.643037606880615 16.70681424843065 15.85066274799629 11.188111620018589 16.31636293426292 19.55969988979371 10.798786848432878 16.601545102710926 18.709473168864783 10.894814172600118 16.981523743245813 20.157622796149838 2.657972912774203 2.236833744196305 14.687883046256246 6.334402905392087 14.29547071351982 19.736942589364613 11.400569206227402 20.72439888630312 4.649929678679164 0.006444240807138886 20.15795658654451 3.590645861187146 20.29560340054743 19.46673926487752 3.913775825129439 0.7295614932549499 20.18240673295424 4.289728119028597 19.078144659780158 2.867488971129968 14.895083433748972 9.786692647987634 18.284808339243163 12.894719322278208 1.7486193958090415 12.201520120142854 20.853659216639905 2.876689068883118 0.8939157112115751 0.28293534185386765 3.0274788796762553 0.7057705828746935 20.197656781610828 2.579177517731912 1.8261547321114446 0.254606968296037 4.222531940201163 19.19730783067811 7.890366830156241 4.74213927520734 19.37811791509207 7.0717667491224985 14.876850133440009 0.42026088260191696 8.280839006223635 17.37702363713296 11.202568916487825 16.119948148898036 15.657335523782127 0.4942330064411952 15.490482050245392 19.716581375289614 15.188234847869776 11.789393292221103 15.645152174376593 11.832556562632146 0.9800711844563864 3.4492021814448295 15.592663634814398 1.4971479710329558 19.06756767664898 9.6726406425081 3.8254048181399916 12.014785256223462 2.4496877064987914 20.64485246287282 12.723484849811403 2.507037068683397 0.39061195079516464 12.465110222435504 2.769458904594696 19.830153557076805 5.415415363160701 6.918369200870986 4.734962781721889 15.56754590761532 14.196001175907524 19.81822055046728 5.287531918201941 6.0772799919962095 4.275625474853699 11.382753143911776 20.576738360460034 20.2734272012014 12.25469710239406 20.318989590074146 20.505411525498534 8.694154962426406 0.1009256982090531 1.8490798736555203 5.555649052722331 1.9602612817408747 18.318312550108377 6.037579796929893 1.8931276886124417 17.448934605285135 5.930141013644799 1.271933333177767 18.909225858176388 11.314680765298329 11.296989874380706 20.205396546387288 5.471971973157961 5.81702779365028 11.813864300530506 0.35211965971956755 9.329900492878819 4.409329389819556 17.97004399706734 4.929792062712081 10.976968333488797 18.32534301029616 4.182894330833847 11.451576550913238 17.01068867898029 4.7246987270857215 10.892102125643408 5.81548401307492 18.2892102000729 15.831741004998316 16.199473710428673 14.780968842570438 14.905535245482143 9.220166900630355 14.996326232832965 8.711032239257015 3.0583544911834277 15.27612603116688 6.513272833137018 3.0644044420868597 14.815995972111345 7.398422374108516 3.9654090268052844 15.435198016127819 6.1700319979157285 9.68023437398689 20.544381554076505 18.229461719426588 1.280071560237867 19.173754745954056 14.487692257051634 10.388328972484489 20.52915236731959 18.865541040273676 13.17760668176284 2.1330040695536043 10.407542782077803 12.976748311768885 2.3906693923408247 9.487032321170725 13.806905885218148 1.3944573561120737 10.344957083076