-134624.86670724174
-134627.77483559144
-134623.37435059526
-134628.42529406233
-134627.49001526102
-134629.41570217497
-134630.29865756677
-134628.64697990046
-134626.1185249149
-134627.62328546253
