-1.456871383368278 1.1089003384023741 0.6514645763447231 0.2127816694145432 -0.6972798349066249 -0.46116874673752184 0.9560076320339793 -0.05436494790412572 0.13125121683921911 -0.814532937694539 -1.0136265680990286 0.19977780095570755 -0.8730057371194514 0.3513178499509498 -1.9599390843324314 0.645675737577088 0.3426231503904293 -0.21251993111272433 -0.61117693246927 0.32140717843444644 -2.4916661009044896 -0.13290546461319047 -1.0428332715699717 -0.2365602598913797 0.43135423447925064 -0.206684812488186 -0.5737563257289666 -0.5824134871833325 1.3522539670665035 0.7264212323572715 0.0958808077597252 -0.5374708610343711 -0.3664824735065301 0.2944710161652348 0.012910280303764864 -0.048565567613529266 0.8404455437952429 0.7148273568720851 -0.47726693785096513 0.07788359985135619 -0.07989291697190112 -0.2657816186503423 -0.11467711453062186 0.5213608428463861 -0.11709909370855318 -0.05492853371707959 0.41210695621386445 -0.046455463249061926 -0.2714830399104937 0.40487110058705755 0.8120117139345823 0.1787657174804147 0.3738880219419819 -0.2016588200285043 0.5792199199466992 1.274051807533464 0.8202724112814777 0.08506854763556962 -0.5453412649213834 1.0777025726433311 0.7584355804803389 0.28070918649445203 1.2319741616371236 0.43656766035939004 0.3185260002319095 0.274656809652785 -0.6086251125816937 -0.26310947113481786 -0.15338250152061972 0.19117309000583205 -0.37535380785423095 -0.3944817869329335 0.8468691879333995 0.2715923117948484 0.9933544481135537 -0.7190370240780584 -0.5008292985519375 -0.5597278726603586 0.2902994012860484 -0.09940193353910623 0.34083314836954204 -0.662029496344763 0.0364952667125565 -1.067441557036955 -0.594667364850021 0.1355963811817923 -0.19642893908813266 0.6725548213561191 -0.8778054725009398 0.9527963241855334 -1.233435062453366 -0.8419555526818662 0.026305984884380504 -0.4525586364710077 -0.12998494853228582 0.2360522099067096 0.41858047975335005 0.3836250467240877 0.41228616210420604 -0.2531037660723576 0.05644651302350279 0.31907955874253435 0.009538278507738411 -0.3443226495800393 -0.5727872769474781 -0.7935514503468656 -0.33307407324941346 -0.8554466451897654 -0.07845181365000037 1.4642265381817687 -0.5144003523681528 -0.3846511739957569 -0.6906613011488427 0.015497324304650728 0.03207913992273184 -0.2062675224451093 0.23174535500123955 0.7029059228441508 0.9831844495590873 -0.8072137783253066 -0.6009524265277844 0.030841153750572697 0.9086633384220608 0.5008910050278083 0.7297428405313369 0.8508443705310638 -0.05909372083836274 -0.1030053346196484 -0.04739494434419579 -0.18480678146817206 -0.49872639327632173 0.0293555703439817 0.2444383770878758 -0.12815380886081798 -0.01882561734693532 -0.2320379465409939 -1.646636794393306 0.09202518145906088 0.270911740788056 1.826508857564022 0.19762398783749835 -0.032117706470151136 0.0690750004207907 -0.050124684570533026 -0.533895484978287 -0.5331861176160883 -0.15778243036052828 0.22500032296792216 0.1508003426157403 -0.10761815080131143 -0.2271626207265636 -0.2999333248313867 0.12969929897106697 -0.6958009363682532 2.2374559891418304 0.45061128293664976 0.46480402949726407 -0.1495376738532328 -0.45157107574675776 -0.4106280576754928 0.7649659253996891 0.7591341492092603 0.6014373365840029 0.19122348362779323 -0.46727974473126616 -0.26015681626439713 -0.2708469489883916 -0.41142818497928496 -0.563971478428061 -0.16220189958446257 0.4926889288329902 -1.3820219423575553 0.40167290536473405 1.9452835392027852 -0.44733749728138444 -0.30666370157668477 -0.7295484651323436 0.8924587036377404 -0.3716709596860051 -1.1762460148368838 -0.7967082508082924 -0.07349035587966699 0.2487012661292878 0.9213563605086972 0.06700577659658782 -0.011280200899509606 0.4298745646099306 0.5550965445359343 1.066569181734331 -0.4500425549173733 -0.30822204720274016 1.0813460829331893 -0.6997318959915433 -0.9048367655871192 -0.6606107616203655 0.2430216992460073 -0.46660020216573833 -0.5731138070489614 -0.1774040612461977 0.20117648107544706 -0.6393492811384279 -1.717891318963919 -0.3936544059356317 0.38267708098852155 0.6135672870783175 0.12534307888490026 -0.6846081529762273 -0.8249626176682954 -0.6342142739047077 1.3773852149164925 -0.0002028600394254571 0.2053889764948979 -0.3335283871780127 0.8289923076529787 -0.08155770626883373 -1.0036866832774973 1.2463592267142019 -0.12217625112114443 -2.0366739152913245 -0.3893418946032069 0.023830012540062184 2.022195004948859 -0.8283847559759668 0.07074056104867171 0.15089495921207563 0.6799439147313386 -2.9693688407412924 -0.7046103071297671 -0.02743109962775921 2.075248690240729 1.2232308682268545 -0.04254095868600415 0.46514804310024405 0.2836728971084663 -0.9620098723640014 0.9186585019615598 0.04104586219771641 0.3812344350047241 0.04277312930146827 -1.4213621347180747 0.9492476876023265 -0.5957677970030514 -0.9992720991495692 0.3198038385030686 1.1236646411957423 0.48820878157444947 -0.33471315151473324 -0.6584754604449176 0.030355986584038045 0.08934712040626548 -0.5032515348401849 -0.7323463395924549 -0.15671156589385268 0.4507046139814044 -1.6473932129433564 0.48637378524823977 0.1250556295514685 0.49291107214612534 0.23215416040388404 -0.14177268519583325 -0.23128744152821454 0.38361810474555225 -1.352791584737528 0.23933010932703297 -0.4379781675536715 0.40219072554141705 -1.196068963100082 -0.36477680366933307 0.5045831091674149 -1.1934585220604286 1.3422881141030432 0.7868431850887546 -0.761096929362586 -0.09366580238627739 0.2950276599996532 0.3108895667325743 -0.44741411615559074 -0.5202262150213105 0.8060593530058892 0.39784273298536643 0.2889043207107347 -0.20441092885234474 -0.38713305987734614 -0.6101394923436911 0.3642193885039663 -0.03394781770035444 0.14825057961069307 -0.13589745736197886 -0.24077661196557243 0.15285388271065936 -0.7415300629742521 -0.18141266818495852 -0.08080463015289309 0.7605443992932257 -0.2906390440136543 -0.40520431555676023 -0.3671830991179805 -1.3568395295546567 0.13454171466503279 -0.23940492842902641 -0.037413150541135566 -0.6708805189774897 0.5767462615952261 1.3959025569943897 -0.25492307866928354 -0.21207230205234445 0.08977546619293571 -0.47499922486271096 1.037651470258716 1.354368442306345 -0.09259905168465987 -0.7984411743389991 -1.8927924112826044 -0.07025642232340158 0.38459872349126667 -0.42462437195458486 -0.25648142429533893 -0.21785882682713445 -0.34122806981511555 -0.2653800123365494 0.12281131360198204 0.6323016302630271 0.5820113666489073 -0.05115209739378287 -1.0571484026410631 -0.5905615702117636 -0.2306852891678414 -0.6672786605588443 -0.04763045739376958 0.35515779252233026 0.26671647175978586 0.23169573271022678 0.00636528009639549 0.6407870420262191 -0.564777262158808 -1.5270696987602346 0.1291421409160163 0.6337519895563085 -0.2064701253742186 -0.8620340685992961 -0.077305358750383 1.323115140719018 0.06329387496263938 0.505839093061703 0.24733806723317403 -0.16551810844188913 -0.6277356081588996 -0.18765042156455425 -0.04657450532542946 -0.4609856841924383 0.20408439875086143 0.3619161942920864 1.6408978350269998 -0.11190340844022663 -0.07829986145316838 -1.3649151074739396 -0.37378414937426596 -0.28384593235122085 -0.1943985389216652 0.24129777457636506 0.19260082359129413 -0.7505602914973203 -0.5012213917840335 0.8404547997666235 0.7044742957725352 0.2844876797002778 -0.6814348974545683 -0.011534997222793037 -0.312024708778282 1.5182158479140306 0.3690088394728096 -1.170907633343106 -0.06392379523715441 1.6216248457300007 -1.737570799670717 -2.026897038410219 -0.3417281493799857 0.42843628950150736 0.8345122090299434 -0.5264765668063965 0.006369136751137418 0.3139838893871818 -0.30786800629743105 -0.07569867638489544 -1.4324356189234169 0.43780590364186533 -0.2562628805266296 -0.4559990296111244 0.8882901740823477 -0.2123283839272085 -0.4947447829207544 0.47570293579795503 -0.17395518346564878 -0.23674255110551487 -0.8323262571222182 0.45238817233141443 -0.8192768801374277 -0.46534678937461155 0.7768266813930169 0.6367013019926195 0.742208062877883 -0.2229043596708419 0.4739353023745709 0.1691366790310829 -0.400383240019033 -0.26459325476919593 -1.1933127405111836 -0.5234038414183437 -0.0007224799883213363 0.09634720587318245 -0.1429304529493603 -0.3605527382856564 1.029975441770697 -0.27489412247457173 0.8746353023030742 -0.5491500971445122 0.07193509557740514 -0.735683631495804 0.5050055414168142 0.37127423846821866 0.22179158622263737 -0.15730317673126457 -0.6831989313335266 -1.2264637733418555 -0.4632356565688796 -0.6375153132534827 -0.03131397962193316 -0.06208314248398985 -0.22234720161579127 1.3738502051800403 0.5636143521989583 0.8854719879072621 0.2642137599425901 -0.39437431482079177 0.14850948969903457 -0.13615791011221712 0.5098775247971348 -0.29529993982443337 -0.23063720953872538 -0.11173885783790435 0.12071123653984372 -1.1539236971906 0.024152685986803566 0.2578968165856268 -0.5450800408401967 -0.37108603371681254 0.309959341608821 0.45908049674992546 0.6541971447845378 -0.15749652368899325 -1.5381254423537638 1.6246788020649758 0.12602570677422167 0.522518610599913 -0.5290710670064501 -0.37628429008830033 0.46699255250815064 -0.6701238433171233 0.5370594845285654 1.6526670597477862 -0.6582728575158082 -1.060361253151406 -0.3768463332393574 -0.31825397751744544 0.287617226468195 -0.300591784350992 -0.2884443503551807 -0.24227170845386017 0.24306309400690398 -1.890257303565577 -0.7400763612468609 -0.8741830452570041 1.4452733941180336 0.2897116471033785 0.5115466849694416 0.5989258830160589 -0.16747728905078899 0.9153695467976429 -0.377707138577756 -1.1331851790916676 -0.26851958640679563 -0.1347486884695163 0.7849415971906676 -0.01831525336942007 0.10071885257831686 0.06483088043245609 0.8246108907558315 -1.0223246100936587 0.21954547050093803 0.14372775203967506 0.7841779795517656 0.7881019971965201 -0.8784495338428421 0.8687621313517491 -0.2528551403966613 0.1530603422945106 0.7010256751023024 1.3089992701429263 0.5373443627588359 0.27681525075668456 -0.6812806312648912 -0.16180389281509552 0.0939599365879285 -0.09003360495032882 -0.3968978525735939 0.26418522069749983 0.19233522863473326 -0.038097321092353746 0.18383310470099307 0.9659593439300526 0.37474471351532235 0.055440440356491615 -1.2688944317022406 -0.16925546399713431 -1.2306865531739515 -0.7330711335736214 0.32982008508849003 1.4577005641377927 0.3873536605285845 -0.9636744045506179 0.041135850808361414 0.7029807419461441 -0.33864591091023616 0.08931112496200748 -0.005761585074125561 -0.13901800526883154 -0.07946997050186959 -0.03832794904592109 -0.42663754572987167 -0.3653061938102418 0.08712337328206932 -0.5399578891222829 0.25250135660166834 -0.8534267865462591 0.5846549749193414 -0.3526589373598765 0.4514132100126548 -0.3811652723296855 0.044634093769606996 0.6425127664680741 0.026664396665063754 0.989311902613064 0.1015886567777799 -0.5846529180368125 -0.18296844270785262 -0.07713386616952522 0.16008768145493718 -1.0699776931952476 0.12339469690927783 0.3321009107028668 0.33291903572878795 -0.5396095046439288 -0.12277531815772405 -0.13614916836146876 0.61051281652271 -0.33145504958875177 0.06628946725585358 0.505834979296645 0.8069558966782295 -1.918082553307961 -0.12190782795110619 0.6159810387261327 -0.5005889004063573 0.777658433265693 0.051041539957847576 0.09945978336023516 -0.7219616539240211 0.2873135791848471 1.002620189686196 -0.5489122701020933 1.0933636762193557 -0.017994636805207718 0.8057117398584834 0.37268114611807424 0.41624797496543153 0.434546001943671 0.3355006804130351 -1.9728833031979245 2.064620521102922 -0.10633131366908785 -0.500910288301518 -0.48561890936008617 0.9456887666064745 -0.8475109352824566 -0.696448340144265 -0.025824160151955523 0.21145292330079066 -0.8015205845952712 -1.2986564934560214 0.6867977044283784 0.3953474773673385 1.564656398764757 -0.7343651697946965 0.5086135704830467 -1.2042211598935713 -1.1983729286429103 -0.9683242446178033 0.6901442523031083 0.36726948818419974 0.6471847180224467 0.4290983485655384 0.5189946566070546 0.06786426794214119 0.4991449688709791 0.018915863067896454 0.3514044961274851 0.1384017118410713 -0.24183050715138352 0.24958572561677017 0.5438032310103021 0.4051595783617538 -0.07935015709455367 0.31539233969893427 1.515471966620306 -1.2845622201464846 0.2576985845318917 -0.9101332380993681 1.321757084029227 -0.13990966384516548 -0.3862478290589154 -0.09019558444948983 0.19302299873037723 0.13409434271496906 -0.9229931247811717 -0.06130409822612022 0.5282501137670516 -0.8039546479580607 0.20792819797698384 -0.4686187752576639 1.625582287715852 0.3481304533619037 -0.43288944017685443 0.6008950909272877 0.0477870375762919 0.3171031517424539 0.0069082970840590695 -0.20945851857858122 -0.07913212754647662 0.44466586398649227 0.11998438567614819 0.6783218057468834 -0.9342159900801846 -0.7163453361785083 -0.1852220146287197 -0.38547315567642004 0.14448674169288667 -0.21418420618902467 0.5714593021646739 -0.033855515096864276 0.9937892216581271 0.47255693396980547 -0.48466400164598467 0.04461635315779413 -0.5129656768041553 -0.007081332326813612 -0.5367391250746691 -0.532831819600463 0.4348370508215285 -0.08502869553656969 0.5234475501720857 -0.6950535166792675 0.07375080862990524 0.10893481273020594 0.15577491301219623 -0.8591372066674752 0.13490295465919347 0.5490387683776285 -0.8339763911311315 1.5992037977223232 -0.23658751358488928 -0.09985573324707318 -0.04679227776319038 0.361341552735539 0.31779529271347207 0.6308109046501137 -0.19411288936044635 -0.12317563891993624 0.5857178689662171 0.013120596542358049 0.26906234628414305 -0.2811799554832835 0.04340150691408654 -0.16373427706858898 -0.31532343413421177 0.9862222079441466 0.24531075239050013 -0.6290522700877941 -0.5991793937877616 0.025250804146988774 0.19019581369422728 -0.4089460419873796 -0.23679345894810835 0.16195944455635333 0.22654992684322922 0.050312889321939155 0.39405755491132133 1.8940944179234798 -1.838068280266847 0.9230383761968103 -0.12497592535346863 -0.30576818634560887 0.09625104661495036 -0.11861527324276348 -0.848373540393068 0.7538862705467596 -0.09481225728589478 0.4311454609025543 -0.825739862153952 0.10056484349895584 0.7856481363393889 -0.16569500033938558 1.4623293211590558 0.8634348056015645 -1.1191664962150727 -2.3779904310551885 -0.272809214921085 0.5075090245649582 0.5864148950332416 -0.5649806364188656 0.5190041696887513 -0.47621150000325724 0.5769439794283289 0.15832878978230153 0.04218768911164347 -0.03726119834430357 -0.2554049034017085 -0.3946062283259398 -0.12269972772478224 0.147554581984933 0.44788745624758347 0.8513783886576628 -0.18610801677809882 -0.4661374035967069 -0.5958238470519674 -0.07035386713321432 0.28232538194163637 0.15748109707002556 0.1483289982571123 -0.1253129969779132 1.0772400311846155 0.060709144954598664 -0.24278130110042706 -0.4161248191240059 0.3426380627887647 0.1404791631953903 -0.6146075554173738 -0.5241255500757167 -0.2825416117175005 -0.3731758263663057 -0.21339153508440026 -0.1739731811877778 -0.1319482429062437 -0.07888015943667061 1.8814499896865917 -0.557507210859956 -0.5485201768699973 -0.03480296661179813 1.0795918192462441 -0.8506659359716705 -0.04021976675199525 0.1665529774643067 -0.8965806962259139 0.2168519828291749 -0.9770852786398849 0.45123246146041646 -0.2719260409851833 0.21320178767109732 -0.32625345078315426 0.02553054017093668 -1.4400031468580297 0.2793591002244608 0.6157504107725653 -0.0712612094388321 0.1790246275687562 1.1334340618776804 2.0864818399523877 -0.4788749057680333 -0.909591249552969 -0.7275201218484051 -0.0027559654785823504 0.06287555647829816 -0.6492755391132043 0.6456747091358235 -0.872149302656427 0.6693797660622471 0.7462225833539149 -0.7683793219566122 -0.5671295644410684 0.006713664574749728 0.620982348595466 -0.2523625170309589 -0.43258682133477117 1.3852689885399432 0.48113182012301003 -1.0167000648180298 -0.38271616175657314 0.3273870501669652 0.6214965692277232 -0.8887717417044566 0.46875812904900566 0.18792475827186345 0.6413341727789407 0.960267692861914 -0.10923126092470221 -0.16351341930703453 -1.049541536828083 0.0041901268219476226 -0.5516404676665337 -0.1904830059173429 -0.4231758124335163 0.4132135590144819 -0.31387127506871754 0.4167254288224823 -0.1283533264661338 0.2006226654545061 0.04824957903500722 0.041557511726812296 -0.06713356042370373 -0.31770838942662055 0.17481804568657636 0.3047844822761009 -0.2089466119391692 -0.08547812436916248 0.2486022786575783 -0.6230207191817335 -0.2155407202169191 -0.4717511502390585 -0.26429474969217065 -0.0019692079112288664 0.35277720810529567 -0.35750855214269395 0.2944172801091639 -0.2714557862169841 0.5850848633679084 -0.6109743295401607 -0.022051323373084606 0.26133463862258216 0.022818540556412314 -0.6003235346945339 0.39125916623057777 -0.13749128421166001 -0.18990142238226004 0.03260981561522126 -0.02501400554583434 0.19449418395926504 -0.22866208809022553 -0.012921593157674521 0.9841067042630406 1.2953909353308724 0.5300524570831129 -0.14835239529587999 -0.6169446881909827 0.13137283001874792 0.13296125755179036 -0.042035222694179225 1.5972132496548557 -0.730067313750291 1.1874436833249165 0.09245635545920852 0.24573369886053165 -0.3182478068698584 -0.1953390484580636 0.21003290302481245 -0.5074478323097196 0.5054485424915037 0.14816136233099644 -1.2987189712628406 -0.386806786886179 -0.32396465474897757 0.9704700873162125 -0.00806786460979901 0.3119074664741273 0.3733899992596408 0.10491540715816769 1.324088560375881 1.1066876470217715 0.0899292181619806 -0.09450269646527595 -0.22769715307379493 -0.01299975469377761 -0.37518720036937964 -0.22222455999499793 0.0729599372974937 0.4448347854641887 -0.7072217766106852 -0.6704745417883228 0.12782059389111536 0.6043138868008495 -0.20252502468354155 0.45149137154875796 -0.13350787408387974 1.7792877197935295 0.5859459258166232 -0.5250930561953085 -1.1613945516463482 0.38858701871505336 0.27138816620384226 -0.4317815518246564 -0.6313608636163127 0.738734759617302 0.5452913855200544 -0.6172136255816532 -0.12821551533668885 -0.48103746063699093 1.0062256476492673 0.3122224266113849 -0.6973610817665216 -1.3450628486347027 0.7013092677809921 -0.5203208316176459 -0.3077736468114119 -0.12542921084080333 0.4170059361773786 0.8031514353304748 -0.08397531457139086 0.6351367857189771 0.26686533863282424 0.42880318592262284 -1.0947160764821922 -0.6642249613341851 0.2515911860825732 0.15302768928436228 0.6160203766045003 0.0005553582828377533 -0.9966056080609996 -0.4432736116246559 -0.11967405352458099 -1.0465659991395266 0.9254863235166706 0.6246901364643564 0.1653368456690185 -1.329531328658007 0.15555971167759658 0.2709734472639269 0.6818969246926514 -0.37118939206389623 -1.1853508053516295 -0.6943850298573332 0.17547753364744617 0.5276857566231492 0.6429735081545764 -0.9709498551661085 0.8784564758213774 0.36998817266694345 0.7259769457310012 0.6314683357284543 -0.963044998496735 1.2212688594044774 -0.21784185754626997 -0.03469446605839186 -0.0013904525896234116 -0.3886574669416726 0.8969766461127521 0.29301577177594695 0.5377256573576545 0.06808846813780532 -1.8613326501114267 -0.7801531746630886 -0.1017336669960764 0.7422175759595798 0.24041434353014726 -0.2475257577639479 0.1902588057216788 0.22408706712503343 -0.020480893562171178 -0.6480907747764838 0.7371504458493175 -0.1242372474152312 -0.1364600147336682 -1.220200308930647 0.4841580085438436 1.1075728778402023 1.368046711124386 0.9712025946068628 1.3613739270899006 -1.4970556688966477 -0.12946584280402218 -0.5613656653740977 0.23764269432228105 -0.6585176265367627 0.07794350655501414 -0.12167360045311304 1.6976117427792763 -0.38359213660362323 0.9283960409642978 0.36193213513168637 0.6083965415106555 -0.0978916675421669 0.5359577668239544 0.1529361580118205 -2.421497353198888 0.6678353043932628 2.2783452711570247 0.5389610724266525 -0.1362134459405009 -0.38732255018033296 1.486363479290124 -0.5355283925960196 -2.2907577858887644 0.5170835556272708 0.13182380151323747 -0.7976582734263876 -0.552300726958352 0.22630310093974576 -0.3077746752526764 -0.12210528867389292 0.06653680737996928 0.23220069737110333 0.5088115454264657 0.6133194327335696 -0.5778181545031661 -0.1713066900992082 -0.1679056348374592 0.2517230836747471 0.0252438621684533 0.3705792692837231 0.09442170671569546 -0.1967850368759708 0.3962694749609756 0.15029357818265082 -0.27111820037190726 -0.3385127277664815 1.3160667185126689 0.39870765208882303 0.3976982369877022 -1.2512880314743868 -0.24327418157644556 -0.5557444625325783 -0.4645289214590064 0.4090167473243149 -0.39016079096007644 -0.029547631750129758 -0.23788874889481612 0.7010611563259281 0.5901090560553772 0.28513405503502504 -0.866111066882147 0.497001440165415 -0.046380644147068516 -0.5109509603669717 0.24480347373677838 -0.6748163636967862 0.8075737327678866 -0.20394350229762298 -1.0826951407619159 -0.3930939054464714 -0.48387030210009563 0.9569895363312744 0.021087673908234652 0.22821754435363922 0.15189177590770617 -0.20837865525084112 -0.21283232014682055 1.0308074507536893 -0.46145156808526333 0.5324695511650378 -0.3543345252900866 -0.4168035903585854 -0.310349120848072 0.37280815861424177 0.11894514577835645 0.10323416280100287 0.20612225511649665 0.19843671354678086 -1.7096838434524622 1.0805652389031066 0.5570320709957504 -0.5689270226611235 -0.8337030828650868 -0.14342641874917234 0.50496928886224 -0.34663921352835786 -0.40461733270503863 -1.2511718176114968 0.1751684870474596 0.39639391635398186 -0.4414044196264011 0.3925022946090595 -0.4985405025177607 0.054322267591648384 1.8354568107859293 -0.34692589153084125 0.2592096218597794 -0.822622399570893 0.5967908389509271 -0.20384014395053926 -0.7395626548352361 0.373466361023531 0.5237164875627561 -1.762734186310222 0.6470481924445824 0.5490966181987575 -1.5963362463665411 0.1728087285660314 0.8007217428430597 -0.20350564342925595 0.014966391501845193 0.08517139176202106 -0.7471062715104487 0.5811325635883798 -0.04941660275991489 0.2795470478655508 0.26732068100268797 0.4054580834387791 1.100252432919389 -0.4667205297936866 0.35200973381165185 0.6860446283124378 -0.7251979014731317 -1.528418242368329 -1.0014961033840817 0.6551600229184394 0.4809130192439846 0.5067654615307143 -0.05342289570583058 0.08198810893803299 -0.08903678825469828 -0.26122176719380175 -1.43725232358577 0.464985806490767 1.6904957005597854 0.9271367146359001 0.41563168153767127 0.39378578930717345 1.2321603095060005 -1.117894057260552 -0.47568005297981947 -1.0614465157957849 0.7487332655909105 -0.6243728623342537 0.9442227235839094 0.12958128533596394 0.876102116656588 0.39501554794921645 -1.4188823057190143 1.130612019047853 -0.9495220243096356 -1.555709216873798 -0.4584428631659266 1.1103774371685329 0.7116751843963486 0.3313794591558099 -0.18936791847629322 1.2654098155877496 0.5128977996806973 0.10358126172777644 -0.6538145646341386 -0.08818858132179005 -0.2552213266359927 0.4190995854816137 0.9814342996372 0.8351099905149424 1.255796975088334 -0.1811614714061009 -0.8662344798338888 -0.041111682438645325 -0.21320333033299413 0.35740596512655864 0.42768964114346986 0.1220340691163253 -0.09710131043038761 1.8063724918254633 -0.0655890987547193 -0.7504546191573914 -0.6219190014771224 -0.6423510440792292 -0.06704100070989745 0.0539070344311007 0.4922459277583006 0.561954190887716 -0.39706008918307106 0.9247926398837557 -0.46005211663457546 -0.46607595423115217 0.07660010515324227 1.0139492415457698 0.5542838188266519 -1.426886921191046 0.42235794451791137 -0.02699864007603092 -1.3590961867993174 -0.07293345493493245 0.31783103104741395 -0.049096243306018666 0.8764453589286196 -0.002436891576266771 0.9975564020100433 0.5207671751264451 0.014942737352761363 -1.22979540881825 0.16963393038247557 0.036399107454324404 1.297483556193843 0.9130385846716212 0.35704215402923667 0.9799510302234543 -1.4138396010887846 0.015602225313631196 -0.2502395571506852 -0.634122742632166 0.20330535449299184 -0.2406773673835468 0.5130885755352648 -0.10015758075820816 0.19917873391912794 0.0650764207843589 1.7365315597729254 0.36137446285600344 0.0229910615785346 -0.00887313411991375 0.18395240388767672 0.4280189994584306 -0.4114878345726268 0.48027718543219866 0.14388767465630703 -1.1493116523398852 0.13663047887326144 0.7988198978346565 -0.09235351133275707 -0.158271711292121 0.005464108438364783 0.7843795540396105 -0.5951646162014137 -0.7061802227200483 0.15214194424529925 -0.34926688095919206 -1.2306729263271967 -0.3235239676671331 0.3132511249862153 0.3239697969553001 0.39210171673653116 0.5298102591653199 1.11255464732551 1.2424280099805955 -0.8185379450888741 0.6963912616540845 -0.9483269755602701 1.121110507315321 1.1865700224707112 -0.2210500800709225 -0.7728052189384497 -1.4658843855001658 -0.7389928983746951 -0.3951610723881453 -0.17244748857187076 0.23290569385792792 0.643328320390834 0.3100994667311111 0.945361465174043 -0.616101880574713 -0.05197356485381372 -0.47851623687703404 0.09557150404942251 0.605232284850061 -0.1717993134649106 0.27387827961554767 0.5029800263463531 -0.17990445907054822 -0.15085202178928214 0.35633792887336047 -0.6063298887896138 -0.5876379688070654 0.9733456090917948 -0.24617438594237603 0.10627552073048795 -0.9740662893079031 0.779757996107199 0.6305573938784108 -0.050775430780654496 -1.4980434867312136 1.8472201219694446 0.0183893011404651 1.9068128939314128 -0.2794521741588994 -0.35281783153524404 -0.6460061243333133 -0.9335531596852051 0.28080200331857447 0.4033441224195699 0.1768301910205987 0.18575474720373816 -0.6770812484715629 -0.48088525132984283 -0.6438196582049558 -0.1269872993565426 -0.507496683269784 -0.01473576354827785 -0.26808815529633184 -0.6951401628558027 1.1902150754224663 0.0307503938089793 0.7251369663282092 -0.7912544267825729 0.3139090702851884 -0.11847643367205403 0.43725928710977596 -0.3830108101788565 -0.7067597493726021 -0.5830194961984475 -0.4175304412222809 0.32131359027937567 -0.675053676518573 0.24395243859039276 0.9293501773474511 1.5363920046024249 0.6756100632426751 -1.1247586455908694 -1.4434013739063014 0.45428384669223054 0.4688725431396828 0.07942189087275354 -1.18823044089227 0.21097418389215924 -0.007527932945928972 -0.8955360570114834 0.3125461284993908 -0.5001304727127 0.17843507361387334 0.3140579371582269 1.453914100512167 -0.03431214301830865 0.31573301086780464 -0.03663076384915627 -0.6185603694175347 -1.0511063102120413 -0.224476075033336 0.11194608875270398 0.16078265063943278 -0.8089323036783099 -0.15223141863531203 -0.5769205823895612 0.45059739897957884 0.8311672038171104 -1.0459947000170888 -0.21038642970948926 -0.6252341818932845 0.42182161239846705 0.22366463487563418 0.38911949417975567 -0.11588116214105204 0.05440454289280953 2.393477470947194 -0.5714091656530287 -1.5023619116009095 0.1224251339071569 0.5863264490844934 -0.16799510922747196 -1.6144712654043551 0.3814156977775947 1.0108217516603817 0.03430982902546349 -0.8591585468237138 -1.637770345141612 -0.2590080473719346 -0.37791616926476845 0.7309939393296184 -0.40382697559325936 -0.4545813233279913 -0.15688974334292982 0.05304571487206994 -1.356283914161503 -1.1082344226836012 -0.11696025413784372 0.2412242410259523 0.13901517705535413 1.0852287058170471 0.8715782606443053 -1.0303688205543737 -1.0804233140086037 1.4542848535880244 1.603618638960567 0.1316386820856249 0.42684940463036164 0.2049467467511567 1.0283649027504678 -1.7089248537992505 -1.3149354331217031 0.09031514074648962 -0.3798133862874814 -1.406150717084959 -0.5807594965196772 -0.11428579262947415 0.5628301657347662 0.18042279346786347 0.19278979967364862 0.42448553238387543 -0.7919355120099975 1.03808290136918 -0.8067229547318171 0.9709377709812503 -0.425148619889171 0.7606850386361481 -0.3024321799938404 -0.9079439437575332 0.1314767025864639 1.0827090247189868 0.15222833331151847 -0.3459786971262235 -0.7827062801022456 -0.7755485860115418 0.2583483023007486 -0.9127256814168926 0.7987918728101986 0.6372800573142251 0.45820966410919794 0.6579162455073378 -0.44348778451799103 -0.29533773504090427 0.2793004790723835 -0.2670185763812369 0.285341800170457 0.3566857991310825 -0.04596309699367568 -0.4289001165118033 1.8562639773392675 -1.8822346903714164 -0.260602388442248 -1.0426260406551722 0.09327705158829096 0.9716700211615845 -0.5723334772395111 1.568123788488067 0.12177258792482255 -1.004129684352187 0.08404807679085526 -0.3672095814805418 -0.017922903027007844 -0.07804069425451075 0.5819848842863461 0.9047665744708159 0.6039019960744116 -0.12803888054950852 -0.32440945559588 0.5113641366449904 0.1313023817921287 0.1708418346476477 -0.050428331853880896 0.0962595312553826 -0.013178189253170852 -0.10948914257177919 -1.7649345363956508 -1.528406415293787 -0.8470594495673348 1.6996627117710343 1.4989292317702765 0.24675571236714275 0.09870233636892034 -0.016389497101616936 0.8601921302945507 0.27802726878691475 1.200715460733158 -0.1627127777826101 -0.09440859408957289 -0.3251393917833691 0.06919249983526148 -0.11430944677855796 -0.7764644129575918 -0.40399666840190424 0.5393855615585808 -1.1341061482440404 -1.1905310640009883 -0.07838393652654242 -0.05844246040760903 -0.0859596919912713 -0.30654465950031723 0.7912194597795792 1.263225406341921 -1.0873894609137917 -1.975837243619926 0.14182410725905897 -0.6605099743764431 -0.7747983381090785 -0.5098754679146058 0.10636011002449423 -0.5504168796720779 0.5976441880901578 0.711530174178052 1.3238592179738942 0.09098259912715943 -0.45822894738290765 -0.9505067568204083 0.09700258006899425 -0.45546655414642206 0.10366636524241502 -0.6740871988402455 1.6762451041780422 0.6075470490261665 1.412951027836244 0.019402315786011745 1.3468199405351255 0.5699109838409475 0.04800121046962701 0.38751846824122294 0.24918411930297726 0.2589355422627863 0.30838685491537854 -0.2657541078465165 -0.025086767765298734 -0.27856874311268154 -0.03504876407401706 -0.1513605859945845 0.44023816723244175 -0.06301902403469792 -0.5204483583344456 -0.162652613968636 0.4019708962211271 -0.6417977426789205 -0.10861573882789036 0.21407827673877972 0.3688545732831325 -0.03350918750103907 1.0489506973216192 -2.187813