18.019563465943122 0.0 0.0 0.016938389657986535 23.00249533161691 0.0 -0.20189118907242676 0.19160201833337323 21.500366501532422
17.899216926864945 0.0 0.0 0.6391094395906397 23.21576763300086 0.0 0.3212909438372258 -0.21733229192599415 21.747118984934666
17.773442087983476 0.0 0.0 0.22485181585507896 23.316889808015084 0.0 -0.2202840412384672 -0.36629286799125144 21.829785908513504
17.68691526429117 0.0 0.0 0.18330718979911367 23.444342234207966 0.0 -0.15695368605531984 0.18192761040849897 21.642381620166717
17.8153799109227 0.0 0.0 -0.11376901611115237 23.11538417290256 0.0 -0.4418748679306157 0.4277294562813431 21.724198971038515
17.71896911533277 0.0 0.0 0.10875903242991254 23.20998904932882 0.0 0.21461215392491048 -0.16730250638697203 21.659827317304817
17.762161088255795 0.0 0.0 -0.43833461133597645 23.173190317859863 0.0 0.2001795554646428 -0.30897279213020956 21.731488988809406
17.610857682488934 0.0 0.0 0.48003675870928336 23.380791039291193 0.0 0.3963323521444135 -0.25423034150441026 21.690324810349086
17.897964364412772 0.0 0.0 0.4361554935963748 22.868873395127316 0.0 0.06139001776993581 -0.22648084106727923 21.76302976890771
17.79595434478125 0.0 0.0 0.22346379870741817 23.176881468104067 0.0 -0.11416104712177172 0.17450712830492496 21.71825386618842
17.549895938909394 0.0 0.0 -0.04827976372793974 23.28044590994554 0.0 0.37884960363323705 0.04399758911884585 21.835036480416964
17.668854446170066 0.0 0.0 -0.15232319418043214 23.249668136119556 0.0 -0.633234074496289 -0.24904250341876707 21.763222749272163
17.819165644671262 0.0 0.0 -0.19084326405442922 23.271527406124708 0.0 -0.12564293696057707 0.21409727522072522 21.588418115157285
17.875434115589908 0.0 0.0 0.12337624626580154 23.06619205124548 0.0 -0.12511016337501377 -0.2591222929395913 21.62634370866883
17.914669959703282 0.0 0.0 -0.3782682561991348 22.96726973112812 0.0 0.21352495124970344 -0.25567816966488527 21.57538944860897
17.822407384249633 0.0 0.0 -0.17683392606652487 23.143768313816736 0.0 -0.1939434371554045 0.008893381284740567 21.811917632399147
17.864830991866132 0.0 0.0 -0.3776803919990419 23.245646627292242 0.0 0.26241650243952164 -0.18457943380796085 21.630665905627545
17.945475481710375 0.0 0.0 0.23664698517731472 23.034148345730614 0.0 -0.2562972808297876 0.011861959293410558 21.649313948282504
17.80776981348937 0.0 0.0 0.09126482029413302 23.038321386416907 0.0 -0.23374478657186146 1.0098252028135417 21.643937394481064
17.909003000979027 0.0 0.0 -0.012822846148700983 23.101360241052877 0.0 -0.3135866425471428 0.1735203300764858 21.819487533251802
18.202502672756985 0.0 0.0 0.0010193401496743912 23.100268269418383 0.0 -0.48151080320244055 0.009883958951307042 21.803157928957717
17.87713806620081 0.0 0.0 0.3443315562930938 22.809905264255335 0.0 -0.10962261062194338 -0.022417931135015813 21.959918857759753
17.693994067807314 0.0 0.0 0.6279244614783459 23.5977190464897 0.0 0.01962263942119831 -0.25215710946032205 21.669675288897007
17.952182802826258 0.0 0.0 0.008563191196948124 23.033242958058583 0.0 0.13351038350461888 -0.008186195358088774 22.028118195111144
18.033273918234354 0.0 0.0 0.2991539810295897 22.95657409719935 0.0 0.3044737968354688 0.3251940285675201 21.74160030023223
17.988281155271302 0.0 0.0 0.13892349536216025 23.063296929326842 0.0 0.005702285126221003 -0.12678140558235212 21.83984197483222
17.854601996428656 0.0 0.0 -0.22628922570273677 23.17600543004625 0.0 -0.053224568551353824 0.14803250515238997 21.636278117680234
17.930769117913023 0.0 0.0 -0.3763489130158765 23.19954631552059 0.0 -0.14921986059927217 0.05870533809204724 21.94320904650489
17.822029022545664 0.0 0.0 0.4261247139290668 23.161241587265007 0.0 -0.42624946813222464 0.4710184050368594 21.772246111334866
17.82979522725546 0.0 0.0 -0.33193729774581493 23.103866485272853 0.0 0.2828518714851806 0.06962535036243257 21.958961844345094
17.758891302285377 0.0 0.0 -0.5714278454336366 23.2808942404919 0.0 -0.11553934681266866 -0.6004281149302686 21.734627574801912
17.905011417296418 0.0 0.0 0.09435941016915213 23.16242410973433 0.0 0.3472139814042121 -0.19434099392333534 21.824024506291423
17.679379251667008 0.0 0.0 -0.22695019145364936 23.125246839454256 0.0 -0.15640946823949803 0.3169735906031378 21.741870771769815
17.88246952657497 0.0 0.0 -0.31698465482806787 23.15379236374063 0.0 -0.17329901218203803 0.20019424635000677 22.0248362975889
17.804048639360225 0.0 0.0 -0.12769063684149154 23.199102674253716 0.0 -0.21715598125427665 0.15005252193252797 21.921697792476902
17.931617388978015 0.0 0.0 -0.1720000739950771 22.983922314792128 0.0 -0.33598471501728105 0.49007110324076913 21.950325956874046
17.86268306157742 0.0 0.0 -0.20601032374917239 23.31256980098163 0.0 -0.44626341092738875 0.07505899422474832 21.815248256027967
17.900176854320897 0.0 0.0 0.14418592456155482 23.098424013169396 0.0 0.13623824603823634 -0.13974668070168322 21.83495793008401
17.90373027927499 0.0 0.0 -0.006481150361097546 23.010787245168455 0.0 0.06953808840470405 -0.1914266841460082 22.105520931057477
17.590255755413313 0.0 0.0 -0.4473202038601606 23.24606827870711 0.0 0.013403774885624945 -0.27690580610171633 21.848029931778374
17.995811346946173 0.0 0.0 0.3558851651972075 23.043978350180165 0.0 0.1276442898838892 0.21013708909829046 21.772952190556705
17.952386006874264 0.0 0.0 0.5493071070383387 22.99512147427521 0.0 0.05475477732096651 0.3198038043264581 21.927080173568243
18.012779943309237 0.0 0.0 -0.406404341080943 23.05448499832172 0.0 0.15824227180197165 -0.15953919195788993 21.621063995993058
17.896912889299774 0.0 0.0 -0.017717943760406776 23.125657062124706 0.0 -0.19990851697347847 0.1252962871379877 21.763701991248993
17.996002909095598 0.0 0.0 -0.02722795240146164 23.06544093658201 0.0 0.1799240370851378 -0.0572092932480149 21.750167071964942
18.017142480214908 0.0 0.0 0.0803564554617585 22.84647536775419 0.0 0.09217570092877947 -0.012954325443274519 21.9333665868569
17.951157257396467 0.0 0.0 -0.030911892797236717 23.084506089036076 0.0 -0.22688467657623393 0.3256519438064293 21.937606651861017
17.939424340332856 0.0 0.0 -0.10935873077866909 22.96520788755013 0.0 -0.07441273216370069 0.13621404901614736 21.786515950692895
17.598667027140092 0.0 0.0 -0.15557221651991843 23.329250576519613 0.0 -0.07194335080694869 -0.3679177328693908 21.905993578033712
18.148092143016864 0.0 0.0 -0.08959713091007426 22.908481896867332 0.0 -0.24556183478716118 0.4394016069667243 22.015577615338756
17.999534637784148 0.0 0.0 -0.2251561787840419 23.020018837558816 0.0 0.12529476061361547 -0.07986393518784826 21.83469548305682
18.107362431644308 0.0 0.0 0.3010711151509499 23.039989031648535 0.0 -0.4560882449282568 0.3087848515468304 21.840032230665894
17.70022354190405 0.0 0.0 0.6961143914560026 23.302114190010638 0.0 -0.07014598589656576 -0.6037900254614311 21.76373466131313
17.946877272135303 0.0 0.0 0.4054558513320808 23.028302262335878 0.0 0.1379217518363598 -0.4337760236675103 21.862544902247055
17.854319944976606 0.0 0.0 -0.40864967490062454 23.051391103200288 0.0 -0.35783628033722115 0.41657699295619416 21.782377458791128
17.890428880965818 0.0 0.0 -0.07030938550219568 23.177354752582193 0.0 -0.5956618295917568 0.30347534510782315 21.818505117357315
17.910549785959045 0.0 0.0 0.03261511116023142 23.258836968094062 0.0 0.1820965596738456 -0.13844854984546343 21.768088177759335
17.874137102252234 0.0 0.0 0.41859441679764503 23.303459869472658 0.0 -0.31910696968650915 0.2811423024813254 21.542088777005414
17.71801818388936 0.0 0.0 -0.2903097279430272 23.08071302958897 0.0 0.49119661811196474 0.10579428657600336 21.95510505238466
18.11719136911227 0.0 0.0 0.1487240239490426 22.993759535553483 0.0 0.10756176515841953 -0.03889760986948405 21.813877447640046
17.932443963777462 0.0 0.0 0.0008786897542250957 23.080615504006445 0.0 0.09819806314564539 0.48107367421625796 21.959371512727294
17.88755756543329 0.0 0.0 0.1609880180888996 23.080816378290404 0.0 -0.24654420592436704 0.018620947425616055 21.979014382489975
17.711773363653577 0.0 0.0 -0.2547838598361567 23.20616029056592 0.0 -0.35885824012098516 0.3944589045819288 21.871525032294528
18.012843973751448 0.0 0.0 0.1912063387813716 23.276755381044804 0.0 0.0627027098726288 -0.43972954708722034 21.66170577751428
17.802115025840905 0.0 0.0 -0.2513480620498477 23.131925847657467 0.0 -0.6304619036401556 0.455751946776553 22.082740396494504
17.897515622140087 0.0 0.0 0.1445582336800255 22.9835063290305 0.0 -0.5383393723983517 0.11840996335607883 21.954989798772978
17.792273917297152 0.0 0.0 -0.3703105970407056 23.221070327216776 0.0 0.4677588812857421 0.08099043087153662 21.738618064427577
17.91270777061471 0.0 0.0 -0.2200576149620017 22.90465699754516 0.0 0.08786183161486515 0.5620291190108071 22.10309915022569
17.801946747488646 0.0 0.0 0.2039925077794724 22.998958071216745 0.0 -0.28776846917315396 -0.012283343255767165 22.112011678416618
17.722502960730154 0.0 0.0 -0.08524523924111203 23.258303985543822 0.0 0.0759940926956109 0.4819811905200173 21.71990211603764
17.906145444053916 0.0 0.0 -0.02587438016665791 22.735701462496916 0.0 -0.07101577283111783 -0.006786429123296434 21.937266437146555
20.357689039344955 0.0 0.0 0.0 20.357689039344955 0.0 0.0 0.0 20.357689039344955
20.504461100676682 0.0 0.0 0.0 20.504461100676682 0.0 0.0 0.0 20.504461100676682
20.327814340047354 0.0 0.0 0.0 20.327814340047354 0.0 0.0 0.0 20.327814340047354
20.44655535547539 0.0 0.0 0.0 20.44655535547539 0.0 0.0 0.0 20.44655535547539
20.51834247720621 0.0 0.0 0.0 20.51834247720621 0.0 0.0 0.0 20.51834247720621
20.40066510796697 0.0 0.0 0.0 20.40066510796697 0.0 0.0 0.0 20.40066510796697
20.44098417782584 0.0 0.0 0.0 20.44098417782584 0.0 0.0 0.0 20.44098417782584
20.490065363900634 0.0 0.0 0.0 20.490065363900634 0.0 0.0 0.0 20.490065363900634
20.547011181645974 0.0 0.0 0.0 20.547011181645974 0.0 0.0 0.0 20.547011181645974
20.5392338642148 0.0 0.0 0.0 20.5392338642148 0.0 0.0 0.0 20.5392338642148
20.645651929991907 0.0 0.0 0.0 20.645651929991907 0.0 0.0 0.0 20.645651929991907
20.59639558626115 0.0 0.0 0.0 20.59639558626115 0.0 0.0 0.0 20.59639558626115
20.442237798632434 0.0 0.0 0.0 20.442237798632434 0.0 0.0 0.0 20.442237798632434
20.482716680008227 0.0 0.0 0.0 20.482716680008227 0.0 0.0 0.0 20.482716680008227
20.440114739672516 0.0 0.0 0.0 20.440114739672516 0.0 0.0 0.0 20.440114739672516
20.535992124636426 0.0 0.0 0.0 20.535992124636426 0.0 0.0 0.0 20.535992124636426
20.473519580127043 0.0 0.0 0.0 20.473519580127043 0.0 0.0 0.0 20.473519580127043
20.53013889553483 0.0 0.0 0.0 20.53013889553483 0.0 0.0 0.0 20.53013889553483
20.249878179155463 0.0 0.0 0.0 20.249878179155463 0.0 0.0 0.0 20.249878179155463
20.291403773049378 0.0 0.0 0.0 20.291403773049378 0.0 0.0 0.0 20.291403773049378
20.179824112781994 0.0 0.0 0.0 20.179824112781994 0.0 0.0 0.0 20.179824112781994
20.218864161328273 0.0 0.0 0.0 20.218864161328273 0.0 0.0 0.0 20.218864161328273
20.275306202371265 0.0 0.0 0.0 20.275306202371265 0.0 0.0 0.0 20.275306202371265
20.34308480674881 0.0 0.0 0.0 20.34308480674881 0.0 0.0 0.0 20.34308480674881
20.220477093459337 0.0 0.0 0.0 20.220477093459337 0.0 0.0 0.0 20.220477093459337
20.295817640144257 0.0 0.0 0.0 20.295817640144257 0.0 0.0 0.0 20.295817640144257
20.233972699803974 0.0 0.0 0.0 20.233972699803974 0.0 0.0 0.0 20.233972699803974
20.368493250407905 0.0 0.0 0.0 20.368493250407905 0.0 0.0 0.0 20.368493250407905
20.213178152224515 0.0 0.0 0.0 20.213178152224515 0.0 0.0 0.0 20.213178152224515
20.217433795334095 0.0 0.0 0.0 20.217433795334095 0.0 0.0 0.0 20.217433795334095
20.29724430189798 0.0 0.0 0.0 20.29724430189798 0.0 0.0 0.0 20.29724430189798
20.332190635560437 0.0 0.0 0.0 20.332190635560437 0.0 0.0 0.0 20.332190635560437
20.215831446747202 0.0 0.0 0.0 20.215831446747202 0.0 0.0 0.0 20.215831446747202
20.210502103081875 0.0 0.0 0.0 20.210502103081875 0.0 0.0 0.0 20.210502103081875
20.172340488701458 0.0 0.0 0.0 20.172340488701458 0.0 0.0 0.0 20.172340488701458
20.184131086080782 0.0 0.0 0.0 20.184131086080782 0.0 0.0 0.0 20.184131086080782
20.171096393084618 0.0 0.0 0.0 20.171096393084618 0.0 0.0 0.0 20.171096393084618
20.25694957419069 0.0 0.0 0.0 20.25694957419069 0.0 0.0 0.0 20.25694957419069
20.220362262005125 0.0 0.0 0.0 20.220362262005125 0.0 0.0 0.0 20.220362262005125
20.175802895175714 0.0 0.0 0.0 20.175802895175714 0.0 0.0 0.0 20.175802895175714
20.288350949734387 0.0 0.0 0.0 20.288350949734387 0.0 0.0 0.0 20.288350949734387
20.29287647322023 0.0 0.0 0.0 20.29287647322023 0.0 0.0 0.0 20.29287647322023
20.2112133172499 0.0 0.0 0.0 20.2112133172499 0.0 0.0 0.0 20.2112133172499
20.1079057551035 0.0 0.0 0.0 20.1079057551035 0.0 0.0 0.0 20.1079057551035
20.364347676157667 0.0 0.0 0.0 20.364347676157667 0.0 0.0 0.0 20.364347676157667
20.22426864815719 0.0 0.0 0.0 20.22426864815719 0.0 0.0 0.0 20.22426864815719
20.147593516552803 0.0 0.0 0.0 20.147593516552803 0.0 0.0 0.0 20.147593516552803
20.241118708825585 0.0 0.0 0.0 20.241118708825585 0.0 0.0 0.0 20.241118708825585
20.14521962759613 0.0 0.0 0.0 20.14521962759613 0.0 0.0 0.0 20.14521962759613
20.16740326534752 0.0 0.0 0.0 20.16740326534752 0.0 0.0 0.0 20.16740326534752
20.257083456024404 0.0 0.0 0.0 20.257083456024404 0.0 0.0 0.0 20.257083456024404
20.31196707018879 0.0 0.0 0.0 20.31196707018879 0.0 0.0 0.0 20.31196707018879
20.24731378640378 0.0 0.0 0.0 20.24731378640378 0.0 0.0 0.0 20.24731378640378
20.317756798025385 0.0 0.0 0.0 20.317756798025385 0.0 0.0 0.0 20.317756798025385
20.432899937613826 0.0 0.0 0.0 20.432899937613826 0.0 0.0 0.0 20.432899937613826
20.19124216940664 0.0 0.0 0.0 20.19124216940664 0.0 0.0 0.0 20.19124216940664
20.24876320277746 0.0 0.0 0.0 20.24876320277746 0.0 0.0 0.0 20.24876320277746
20.27672228058082 0.0 0.0 0.0 20.27672228058082 0.0 0.0 0.0 20.27672228058082
20.312972506884662 0.0 0.0 0.0 20.312972506884662 0.0 0.0 0.0 20.312972506884662
20.295924004763133 0.0 0.0 0.0 20.295924004763133 0.0 0.0 0.0 20.295924004763133
20.207395303691627 0.0 0.0 0.0 20.207395303691627 0.0 0.0 0.0 20.207395303691627
20.2961372631781 0.0 0.0 0.0 20.2961372631781 0.0 0.0 0.0 20.2961372631781
20.403108848315146 0.0 0.0 0.0 20.403108848315146 0.0 0.0 0.0 20.403108848315146
20.276767260643528 0.0 0.0 0.0 20.276767260643528 0.0 0.0 0.0 20.276767260643528
20.383809755526492 0.0 0.0 0.0 20.383809755526492 0.0 0.0 0.0 20.383809755526492
20.2470364975466 0.0 0.0 0.0 20.2470364975466 0.0 0.0 0.0 20.2470364975466
20.216316702247262 0.0 0.0 0.0 20.216316702247262 0.0 0.0 0.0 20.216316702247262
20.245327784340827 0.0 0.0 0.0 20.245327784340827 0.0 0.0 0.0 20.245327784340827
20.39110499252085 0.0 0.0 0.0 20.39110499252085 0.0 0.0 0.0 20.39110499252085
20.224562341507827 0.0 0.0 0.0 20.224562341507827 0.0 0.0 0.0 20.224562341507827
20.271896184440635 0.0 0.0 0.0 20.271896184440635 0.0 0.0 0.0 20.271896184440635
20.2356909381995 0.0 0.0 0.0 20.2356909381995 0.0 0.0 0.0 20.2356909381995
20.343718761044418 0.0 0.0 0.0 20.343718761044418 0.0 0.0 0.0 20.343718761044418
20.263636257395444 0.0 0.0 0.0 20.263636257395444 0.0 0.0 0.0 20.263636257395444
20.299214428644675 0.0 0.0 0.0 20.299214428644675 0.0 0.0 0.0 20.299214428644675
20.208007032544486 0.0 0.0 0.0 20.208007032544486 0.0 0.0 0.0 20.208007032544486
20.153070500659265 0.0 0.0 0.0 20.153070500659265 0.0 0.0 0.0 20.153070500659265
20.148034321167362 0.0 0.0 0.0 20.148034321167362 0.0 0.0 0.0 20.148034321167362
20.14370882666628 0.0 0.0 0.0 20.14370882666628 0.0 0.0 0.0 20.14370882666628
20.371494743533688 0.0 0.0 0.0 20.371494743533688 0.0 0.0 0.0 20.371494743533688
20.25661513419501 0.0 0.0 0.0 20.25661513419501 0.0 0.0 0.0 20.25661513419501
20.079738710657256 0.0 0.0 0.0 20.079738710657256 0.0 0.0 0.0 20.079738710657256
20.342749308398716 0.0 0.0 0.0 20.342749308398716 0.0 0.0 0.0 20.342749308398716
20.242194526090167 0.0 0.0 0.0 20.242194526090167 0.0 0.0 0.0 20.242194526090167
20.094671562299784 0.0 0.0 0.0 20.094671562299784 0.0 0.0 0.0 20.094671562299784
20.323671411683154 0.0 0.0 0.0 20.323671411683154 0.0 0.0 0.0 20.323671411683154
20.341039536838526 0.0 0.0 0.0 20.341039536838526 0.0 0.0 0.0 20.341039536838526
20.25383166207907 0.0 0.0 0.0 20.25383166207907 0.0 0.0 0.0 20.25383166207907
20.27749064588735 0.0 0.0 0.0 20.27749064588735 0.0 0.0 0.0 20.27749064588735
20.026015582110787 0.0 0.0 0.0 20.026015582110787 0.0 0.0 0.0 20.026015582110787
20.220049518274987 0.0 0.0 0.0 20.220049518274987 0.0 0.0 0.0 20.220049518274987
20.13009733051301 0.0 0.0 0.0 20.13009733051301 0.0 0.0 0.0 20.13009733051301
20.144740722222572 0.0 0.0 0.0 20.144740722222572 0.0 0.0 0.0 20.144740722222572
20.24290044848611 0.0 0.0 0.0 20.24290044848611 0.0 0.0 0.0 20.24290044848611
20.32859910984734 0.0 0.0 0.0 20.32859910984734 0.0 0.0 0.0 20.32859910984734
20.071568214560276 0.0 0.0 0.0 20.071568214560276 0.0 0.0 0.0 20.071568214560276
20.3067414452563 0.0 0.0 0.0 20.3067414452563 0.0 0.0 0.0 20.3067414452563
20.309769397242498 0.0 0.0 0.0 20.309769397242498 0.0 0.0 0.0 20.309769397242498
20.218936129428613 0.0 0.0 0.0 20.218936129428613 0.0 0.0 0.0 20.218936129428613
20.17331629147366 0.0 0.0 0.0 20.17331629147366 0.0 0.0 0.0 20.17331629147366
20.30538780995733 0.0 0.0 0.0 20.30538780995733 0.0 0.0 0.0 20.30538780995733
20.32682001607286 0.0 0.0 0.0 20.32682001607286 0.0 0.0 0.0 20.32682001607286
20.344857550396796 0.0 0.0 0.0 20.344857550396796 0.0 0.0 0.0 20.344857550396796
20.338292048772754 0.0 0.0 0.0 20.338292048772754 0.0 0.0 0.0 20.338292048772754
20.263952705366037 0.0 0.0 0.0 20.263952705366037 0.0 0.0 0.0 20.263952705366037
20.35176384214302 0.0 0.0 0.0 20.35176384214302 0.0 0.0 0.0 20.35176384214302
20.288575850047938 0.0 0.0 0.0 20.288575850047938 0.0 0.0 0.0 20.288575850047938
20.2754099211041 0.0 0.0 0.0 20.2754099211041 0.0 0.0 0.0 20.2754099211041
20.260994604771344 0.0 0.0 0.0 20.260994604771344 0.0 0.0 0.0 20.260994604771344
20.20524790258013 0.0 0.0 0.0 20.20524790258013 0.0 0.0 0.0 20.20524790258013
20.24258558804714 0.0 0.0 0.0 20.24258558804714 0.0 0.0 0.0 20.24258558804714
20.374101999639244 0.0 0.0 0.0 20.374101999639244 0.0 0.0 0.0 20.374101999639244
20.289235204849547 0.0 0.0 0.0 20.289235204849547 0.0 0.0 0.0 20.289235204849547
20.273399576889563 0.0 0.0 0.0 20.273399576889563 0.0 0.0 0.0 20.273399576889563
20.240862587056743 0.0 0.0 0.0 20.240862587056743 0.0 0.0 0.0 20.240862587056743
20.304084975670364 0.0 0.0 0.0 20.304084975670364 0.0 0.0 0.0 20.304084975670364
20.10513074982289 0.0 0.0 0.0 20.10513074982289 0.0 0.0 0.0 20.10513074982289
20.178567846089365 0.0 0.0 0.0 20.178567846089365 0.0 0.0 0.0 20.178567846089365
20.621622522137784 0.0 0.0 0.0 20.621622522137784 0.0 0.0 0.0 20.621622522137784
20.42873584216129 0.0 0.0 0.0 20.42873584216129 0.0 0.0 0.0 20.42873584216129
20.434091644687037 0.0 0.0 0.0 20.434091644687037 0.0 0.0 0.0 20.434091644687037
20.30755108638508 0.0 0.0 0.0 20.30755108638508 0.0 0.0 0.0 20.30755108638508
20.40555946796703 0.0 0.0 0.0 20.40555946796703 0.0 0.0 0.0 20.40555946796703
20.257815308103556 0.0 0.0 0.0 20.257815308103556 0.0 0.0 0.0 20.257815308103556
20.187150571231648 0.0 0.0 0.0 20.187150571231648 0.0 0.0 0.0 20.187150571231648
20.28908280181354 0.0 0.0 0.0 20.28908280181354 0.0 0.0 0.0 20.28908280181354
20.349353439958964 0.0 0.0 0.0 20.349353439958964 0.0 0.0 0.0 20.349353439958964
20.66044137461097 0.0 0.0 0.0 20.66044137461097 0.0 0.0 0.0 20.66044137461097
20.28908968111725 0.0 0.0 0.0 20.28908968111725 0.0 0.0 0.0 20.28908968111725
20.283278257015112 0.0 0.0 0.0 20.283278257015112 0.0 0.0 0.0 20.283278257015112
20.42595924934906 0.0 0.0 0.0 20.42595924934906 0.0 0.0 0.0 20.42595924934906
20.196196326431245 0.0 0.0 0.0 20.196196326431245 0.0 0.0 0.0 20.196196326431245
20.27795790936232 0.0 0.0 0.0 20.27795790936232 0.0 0.0 0.0 20.27795790936232
20.242546958110932 0.0 0.0 0.0 20.242546958110932 0.0 0.0 0.0 20.242546958110932
20.038251746699544 0.0 0.0 0.0 20.038251746699544 0.0 0.0 0.0 20.038251746699544
20.331258754496524 0.0 0.0 0.0 20.331258754496524 0.0 0.0 0.0 20.331258754496524
20.45033103485699 0.0 0.0 0.0 20.45033103485699 0.0 0.0 0.0 20.45033103485699
20.23524431263565 0.0 0.0 0.0 20.23524431263565 0.0 0.0 0.0 20.23524431263565
20.44427936430226 0.0 0.0 0.0 20.44427936430226 0.0 0.0 0.0 20.44427936430226
20.20317829051826 0.0 0.0 0.0 20.20317829051826 0.0 0.0 0.0 20.20317829051826
20.359382406411687 0.0 0.0 0.0 20.359382406411687 0.0 0.0 0.0 20.359382406411687
20.344732135398413 0.0 0.0 0.0 20.344732135398413 0.0 0.0 0.0 20.344732135398413
20.157386999147803 0.0 0.0 0.0 20.157386999147803 0.0 0.0 0.0 20.157386999147803
20.351645835625554 0.0 0.0 0.0 20.351645835625554 0.0 0.0 0.0 20.351645835625554
20.340627307793216 0.0 0.0 0.0 20.340627307793216 0.0 0.0 0.0 20.340627307793216
20.342751425107547 0.0 0.0 0.0 20.342751425107547 0.0 0.0 0.0 20.342751425107547
20.22052101516763 0.0 0.0 0.0 20.22052101516763 0.0 0.0 0.0 20.22052101516763
20.42267094217635 0.0 0.0 0.0 20.42267094217635 0.0 0.0 0.0 20.42267094217635
20.456777471609154 0.0 0.0 0.0 20.456777471609154 0.0 0.0 0.0 20.456777471609154
20.30895552269605 0.0 0.0 0.0 20.30895552269605 0.0 0.0 0.0 20.30895552269605
20.284029159473764 0.0 0.0 0.0 20.284029159473764 0.0 0.0 0.0 20.284029159473764
20.354482225462327 0.0 0.0 0.0 20.354482225462327 0.0 0.0 0.0 20.354482225462327
20.268086637717698 0.0 0.0 0.0 20.268086637717698 0.0 0.0 0.0 20.268086637717698
20.24295548291578 0.0 0.0 0.0 20.24295548291578 0.0 0.0 0.0 20.24295548291578
20.30868511314258 0.0 0.0 0.0 20.30868511314258 0.0 0.0 0.0 20.30868511314258
20.212563248308413 0.0 0.0 0.0 20.212563248308413 0.0 0.0 0.0 20.212563248308413
20.27606927590571 0.0 0.0 0.0 20.27606927590571 0.0 0.0 0.0 20.27606927590571
20.252767486713072 0.0 0.0 0.0 20.252767486713072 0.0 0.0 0.0 20.252767486713072
20.26942228099158 0.0 0.0 0.0 20.26942228099158 0.0 0.0 0.0 20.26942228099158
20.280043925917653 0.0 0.0 0.0 20.280043925917653 0.0 0.0 0.0 20.280043925917653
20.22526826390377 0.0 0.0 0.0 20.22526826390377 0.0 0.0 0.0 20.22526826390377
20.337893049157653 0.0 0.0 0.0 20.337893049157653 0.0 0.0 0.0 20.337893049157653
20.388413597239165 0.0 0.0 0.0 20.388413597239165 0.0 0.0 0.0 20.388413597239165
20.296364280200486 0.0 0.0 0.0 20.296364280200486 0.0 0.0 0.0 20.296364280200486
20.14966577450072 0.0 0.0 0.0 20.14966577450072 0.0 0.0 0.0 20.14966577450072
20.232648698428676 0.0 0.0 0.0 20.232648698428676 0.0 0.0 0.0 20.232648698428676
20.335507518302396 0.0 0.0 0.0 20.335507518302396 0.0 0.0 0.0 20.335507518302396
20.18006647594342 0.0 0.0 0.0 20.18006647594342 0.0 0.0 0.0 20.18006647594342
20.12754828390037 0.0 0.0 0.0 20.12754828390037 0.0 0.0 0.0 20.12754828390037
