-134635.48464773057
-134633.86350722343
-134635.62407110626
-134635.63517076577
-134636.02986114024
-134634.92914746536
-134634.99595426995
-134634.76470308617
-134635.9595255634
-134634.47441245127
-134636.10569123973
-134635.33121430178
-134633.5917034585
-134637.50172230846
-134636.93927565726
-134635.5086624571
-134633.66154637325
-134636.21912039674
-134636.60673826045
-134635.85266836378
-134623.78078812416
-134628.25671396093
-134625.78572397583
-134627.45841332036
-134627.07024973238
-134627.0623867309
-134628.4375034021
-134626.7106661248
-134629.8354983164
-134627.71373283715
-134625.67380790782
-134628.81178469447
-134627.44618452448
-134626.07935181484
-134628.91218068707
-134629.32333462904
-134627.98318485823
-134627.4630690521
-134628.81213612945
-134629.2969647572
-134627.48367704943
-134627.64835503837
-134630.99920348777
-134628.08094216292
-134627.56530262943
-134629.17404290894
-134626.63078942042
-134627.81438543307
-134626.5602794186
-134627.26065635687
-134628.5979497487
-134628.0746827283
-134626.37307244467
-134629.92184303066
-134628.63879907
-134628.31649437806
-134628.16049695664
-134628.02266599113
-134627.07254079482
-134626.96267741756
-134625.4652278885
-134629.03805075272
-134627.06614353455
-134627.555161763
-134628.84522394775
-134627.4311820722
-134629.3605357201
-134627.59952380185
-134624.89335698265
-134629.08119304126
-134630.46402373162
-134625.18237262816
-134622.3245914612
-134624.65536254583
-134624.65210330233
-134625.1394337447
-134624.6400554621
-134626.06070807125
-134624.4860807989
-134627.90153560432
-134626.22752718793
-134625.02983608659
-134625.133989291
-134624.57542393554
-134625.10089303722
-134624.37028778897
-134626.20351150897
-134626.31683386132
-134615.84179313853
-134615.21676588277
-134612.9012820175
-134613.87842988674
-134609.08651171872
-134616.08502821578
-134614.62420752234
-134614.10299550561
-134615.1115093928
-134614.32203571696
-134611.85567398006
-134612.54065621394
-134612.76759997173
-134615.69770641194
-134616.2063594226
-134615.1839414707
-134615.01061978567
-134614.57026748455
-134615.9282559502
-134615.4892843547
-134614.51060326007
-134615.57429979285
-134614.04926104983
-134614.58582749806
-134611.62937173064
-134614.04990595963
-134614.9935623297
-134613.78361712588
-134613.85326534318
-134614.4333793935
-134615.55476147498
-134616.73630343637
-134616.2075165867
-134615.256790427
-134614.00787797727
-134614.88171701127
-134612.49523510804
-134614.8111117696
-134616.5772135772
-134615.8059108472
-134614.90600521222
-134614.17000217782
-134613.71323665025
-134616.85232869544
-134615.1161746485
-134614.67871029154
-134616.21315709842
-134613.6242503909
-134612.99733180788
-134612.78044224827
-134613.95246226614
-134610.4134162124
-134603.7679640196
-134606.52266832843
-134606.02753624623
-134605.27073078914
-134605.18901990145
-134604.38648299265
-134603.7223603253
-134606.80068132302
-134609.26034307297
-134608.3319237173
-134606.1584016417
-134605.5354065321
-134607.28648711153
-134605.31044430728
-134605.63276382946
-134606.66984953362
-134608.1806174024
-134607.73580991747
-134606.16911626016
-134608.47777102044
-134605.2466197343
-134602.13934310304
-134604.77458644347
-134604.61887542185
-134604.5639224403
-134605.8546925292
-134605.74876623097
-134606.27414825623
-134605.59596560293
-134607.63261618643
-134603.74089005322
-134607.02744793467
-134606.97527568444
-134605.80073548428
-134606.52290397903
-134605.3964994924
-134605.97249646037
-134603.3087036163
-134605.1410954843
-134604.83380168013
-134607.50359409014
-134607.28250744665
-134607.17635883146
-134607.77572044602
-134607.69189169633
-134607.56057568034
-134607.6419573103
-134606.32814190042
-134606.17078907997
-134606.98192396975
-134606.94834389756
-134599.94519112492
-134602.0775539416
-134601.1721714714
-134604.59154702903
-134603.05172719838
-134602.99767763476
-134602.63393395083
-134603.51576374378
-134601.97395122345
-134600.33950856738
-134601.3109119774
-134600.72472135292
-134600.7368055203
-134602.58839937346
-134603.70361249818
-134603.06722897955
-134599.36441230046
-134602.13319074523
-134601.34732584312
-134602.45103113755
-134602.6877384759
-134602.0886903365
-134602.71298710266
-134602.08472278065
-134601.67815586165
-134602.45664049222
-134604.20615532866
-134602.8793708372
-134599.596119411
-134601.92630749173
-134601.3149165407
-134600.86824249092
-134599.60713444313
-134600.15202118017
-134601.08597097747
-134602.09204631645
-134600.32237260655
-134601.19792704625
-134603.7272970146
-134600.72967586562
-134602.7796592109
-134599.65360781323
-134600.29896102034
-134601.1405258565
-134600.54233473958
-134600.51801306862
-134600.5069387157
-134600.51482865642
-134602.5078685074
