20.66652003320333 0.0 0.0 0.0 20.66652003320333 0.0 0.0 0.0 20.66652003320333
20.661577518077305 0.0 0.0 0.0 20.661577518077305 0.0 0.0 0.0 20.661577518077305
20.932388717047107 0.0 0.0 0.0 20.932388717047107 0.0 0.0 0.0 20.932388717047107
20.727532577794864 0.0 0.0 0.0 20.727532577794864 0.0 0.0 0.0 20.727532577794864
20.671304324344053 0.0 0.0 0.0 20.671304324344053 0.0 0.0 0.0 20.671304324344053
20.72068925813644 0.0 0.0 0.0 20.72068925813644 0.0 0.0 0.0 20.72068925813644
