-134620.63933208995
-134624.21790580807
-134624.76480768414
-134624.32243058394
-134625.5704653305
-134623.68078288704
