0.7471978027829905 -0.4251907859810161 0.3575918558851196 -0.3612844742453585 -0.029277923028510865 -0.3807976045776216 -0.21512805815953276 0.4198477765015479 0.3242649595982157 0.004773510129243392 0.026711962073547542 -0.6766924976735765 -0.15261734121982104 0.044413750228684795 0.3456128291463725 -0.06251303093255685 0.02213411289487801 0.0356930825262353 0.01779974718558225 -1.2903883399099585 -0.3924948384098918 -0.36055093851344355 0.7753706656727808 0.4908480189695095 0.0445217365614588 -1.2726271592717953 0.1887606239095975 -0.6377161164103791 1.2246097508522522 -0.1297242386717314 0.7268071549417805 -0.4310243619436577 0.07297382125456466 0.07487540915265169 -0.29307465003834043 0.07204102502765013 -2.1490596626846084 0.39634198007012383 -0.2013281761619629 0.15760579557334792 -0.691937339647789 0.0874614733477784 -0.1353125313927863 -0.037291537361606744 -0.21446239955107582 0.9182736078183154 0.4965029032624417 -1.1809711882266953 -0.06497897597454615 0.06924932121512589 -0.322951897213747 0.28088376439910334 0.28551483541321154 -0.296658767845173 -0.06465064610084996 -0.544800819036881 -0.1967261586135773 0.0743285355102462 0.40191253217936584 -0.37701114095199584 -0.30021588906881197 0.7766449043995141 0.052031928895574904 -1.0000925381683359 -2.1403261394663526 -2.182337450901132 0.9809699584062718 1.386795452486799 0.41166524069075555 0.2172150225955485 0.7038055518402847 2.111746270946131 1.4259199292920863 1.370530653888504 0.9819348934227023 -0.36492387077015864 -0.5492909935977508 -1.3508650571387768 -0.38091484688177624 -0.6189835729978824 -0.8766916706114707 -0.1585686737072495 0.024298210425732346 0.5423130196180209 1.6212003565980724 1.2696662768712585 0.03166673497566159 0.28419740215336864 -0.6204624715362541 0.1506296213658309 -0.21194991754186726 -0.4811667871260036 -1.9437213369219881 -0.22698341483622198 0.3180737431858393 -0.024263243422738858 -0.017670934917201824 -0.3613770339591647 1.0954395849117782 -0.7405648708475052 -0.461488849081102 -1.7568862121698776 0.7116350751870324 0.5002837104611126 1.506490331946986 -0.4411077143215887 -0.5108992811934299 0.35251649824474124 0.846296089038749 0.17380528815134583 -0.479088050220104 0.2726078975435563 -0.5316452554915295 -0.03269980422586626 -1.0401058453364795 0.1949307572760514 0.5679374050543445 -1.2220409616838117 0.03474357412877242 -0.893313338328552 0.43994300458952623 0.41407822100762237 -0.9042685517884749 -0.5730338457406453 0.16394150798338863 -0.5687994959443237 0.05351468408868848 -0.06662679599061429 -0.09670073255785927 0.012922107378306779 0.1205734254103988 -0.2889063775932637 -0.2660742101900966 0.08239485745814842 -0.32737985107811357 0.3877143863021129 -0.3244745045058606 0.2631130706792436 0.10609682906077857 0.21203193573271226 0.01372172046146669 -0.7102793324900865 -0.012532328139055837 -0.5827549296831512 -1.2460725487117186 -0.29410951906075794 -0.9983027932577646 0.5051580078342784 -0.20930065284447827 0.1795452759589166 0.42171002652126727 -0.659386145184645 -0.25774949237448513 0.5943097244002862 -0.05762536382295237 0.8098093069666248 -0.2170515004344907 -0.08463377409099618 -0.6848845465660657 0.4458899662015805 -0.9426260685207507 -0.016882120467319312 0.9189719194369206 0.21064688245972754 -0.3355875836998865 -0.401286982780225 -0.2610492461716794 0.6340672068038822 -0.30019686290541847 0.32144703053344637 -0.5165755056426007 -0.665456519748441 0.864491014780221 -0.15937831409273842 0.37684967567346705 0.0777460458322274 0.3897627841907094 0.5564769698232287 -0.7161897844372505 -0.09954540109550598 0.13831480855421988 0.2593232646195083 0.8249471910493276 0.38045796185001574 0.12616788877904078 0.29627130259876716 -0.28020087939946575 -0.30837425650988826 -1.312331419839953 0.023995077363016742 -0.4172728166855201 0.8788729945335056 0.0670019199418459 0.4460845987108898 -0.07141727540072217 0.2002735096452035 0.0148846304213163 -0.8984511737757495 -0.33357106749049004 -0.13240152839357844 -1.3754926258794697 0.2313416918049177 -0.16157660729563786 0.008816055629733203 -0.20796136520776443 0.344388212710652 -0.5551073431692117 -0.9552558414696193 -0.8615789833397484 0.7528472877592841 0.5528951660092414 0.6057686169695051 -1.0044996660970957 0.37561477482510147 -0.20312512016138567 0.4830655468106132 0.4120352224356646 -0.5187750843970806 0.23532535904301408 0.13012867319900168 0.5625447732838634 0.06215590470345425 -0.294369457590364 0.15190668830604162 -0.09562369744359661 -0.013626075423866856 0.11244334010409666 0.4296061414398924 0.024162199068500322 -0.05279554653447681 -0.018747455810832227 0.1388773659259092 -0.5127754151702202 -0.5804054556143682 -0.16107961305456128 -0.0771300095147833 0.15146214456945525 0.4404914208938285 -1.2751756367252618 0.26782024634692586 0.1426265485556963 -0.29664077012304396 0.0004769396364185335 0.083305799308192 -0.4744178984379442 1.8735726438210443 0.009358558396764529 0.1814473780776359 -1.9021666534086532 -0.5436931877949992 0.33238913136724685 0.24676805366231697 -0.9784934718413212 -0.8688649754782004 -0.5437045006489089 0.42431403980301763 0.2725829578428919 -0.03565091643439021 0.0928276227556982 0.19247432531575884 0.10340205583743481 0.5736174861582573 -0.688108452820002 -0.5589825098539019 -0.4274258459591219 0.3594433072715616 -0.3513772424339755 -0.7816354156355699 0.18173996961739022 -0.017277041912892827 1.0968930295288528 2.592406293639045 0.9259509218579149 0.6549851879034719 -0.6302295782253469 0.8085479237556977 0.03441473003444395 -1.3813745385815435 -0.47903045750929113 -0.3645353770824883 2.3369319704519818 -0.051270111028885894 -0.18623348661236958 -1.4131857695548695 -0.4645448622986064 -0.055893982954142454 -0.6189272658386502 0.556207518211926 -0.014560157202362024 -0.7634528311892723 1.0108235514325947 0.22611001109233317 0.07056983979876233 -0.6967098213357678 -0.2683406376267701 0.25552831635345025 -0.3446201262158 0.16352961725695064 -0.3236118993952491 -0.5346966407233437 -0.5824793074242613 0.2509244990328517 -1.0653954731412039 0.004123278139754189 -0.02971449634529721 0.220395220095743 -0.1705091338985773 -0.5405441006430561 0.1504067067217474 -0.06488898736390115 0.35574708936689703 0.35160247107090414 -0.5129145118512457 0.34230613337064275 -0.12724980898930985 -0.8440222054029077 2.3404937196613114 0.11769867496576505 -0.30991254753128566 -0.4995149506158882 -0.08343743979004986 0.7729774828502559 -2.107498294303054 -0.6896616562397349 0.5131351125024841 0.5028244746050953 1.0843298481518615 -0.08834387595273172 -0.0982819610020501 0.6591879131309099 0.08395808818021025 0.10753124751445996 -1.0081346917465217 0.0809558110187767 -0.33723283261279335 -0.336934070425452 0.1848378918164236 0.4949417294229089 0.04901756754928332 -0.22501549247657374 -0.5200266974159946 -0.13901723393788315 0.7125812411503857 3.4367182623682297 -2.1199056668284713 -0.9593672925348317 -3.7307277655160136 2.03001835764802 0.2864682004654163 0.6652456892892156 0.5059856459418963 0.3610268497085976 -0.7255264884571441 0.34672817369773834 -0.3104884746394136 -0.460219238340059 -0.24851717514293975 -0.13078559005671025 0.23605298123765797 0.43955502512248806 0.2954408362776718 -0.4009349987574449 -0.1722878230655549 -0.10783412346685946 0.05935674469176229 0.606238100406756 -0.06650852524519513 0.4544010889963852 -0.8426448654394068 0.690751546869804 0.5251977000939729 0.3711338562356124 -0.5724520050952464 0.6294163382954321 -0.2250383752947092 -1.0323912503010413 -0.2236525506907761 -0.41548898531221995 -0.665708230747931 -0.23661990948472153 0.18583933649774445 -0.08448182189416419 0.05893302689078238 -0.18213643372486052 0.5660620424085026 0.4338309781545174 -0.44133268584820123 -0.1999302673731718 -0.46571420001635927 0.18346338006640014 -0.738622916629786 -0.6364570471922975 -0.370889087214658 0.3351967760193711 0.4329550033074673 -0.2059265941659228 0.013903497454969604 -0.24067968137639195 0.5982016032555246 0.5895824941279459 -0.20690309914657914 0.07638156138453298 0.04854628433981962 -0.42220779209329223 -0.025062599395582644 1.946538237545493 -0.32967584620114193 0.6176622830832975 1.471073385900273 -0.010955470570239196 0.40034158814782017 0.057709438896326425 -0.22758196765216934 0.4122087718990514 0.8586826356285598 0.6462388091694097 -1.5665667284135922 -0.8081275483888276 -0.8042685796540535 1.157371289419568 0.286857465484035 0.20101167336280865 0.43414928072588455 -0.6039768151764051 0.8134733860817732 0.5181744746986043 0.9782623296671217 -0.5990672936899295 -0.5294557040393785 -0.5628134535642177 -0.27597732823642146 -0.09315029620243957 -0.05234020416461309 -1.0596338880670784 0.06750431349956115 -0.3191762322213987 0.14117978880684073 1.0094223002096938 -0.9005224544824814 0.3797799619463847 0.16515815399930908 0.197635300691408 1.6426225310275901 0.4511165047078425 -0.08800474744575812 0.4042182974944071 0.15928498304798372 -0.49403464422760723 -1.023420928481631 -0.936676278695219 -0.6503106652459381 -0.9202762400706409 0.1873084648441032 0.027453982445894656 0.35643383102127646 0.0895623217408651 0.7695396608133005 0.6942320492192366 -0.341552800144386 1.2034284887889468 0.7948058915792571 0.6994040803384792 0.6776209230251169 0.08473250445238956 0.9043500557586877 0.12778639821907023 0.8019191055852706 -0.3014551607925518 0.9138351124309876 -1.530715265932622 1.1127338532158513 -0.21833216691912719 0.17037260832071302 -0.27232739018866003 -0.8059266840827669 1.6193301361585528 -0.49259096980254524 -0.0026623773235115436 0.34458001700648394 0.7671397931225563 -0.3643386876906499 -0.64563974213283 -0.4313259523444765 -0.41366350206770697 -0.7510477726567 0.4971845027104986 0.512349126266079 1.4177458781217263 -0.4546579422021976 0.3513772424339755 -1.028985567053602 -0.011873868619450518 -0.6960418487344657 -0.2259030372878497 0.23963735615480666 -0.15719364773659378 0.33870376073136504 0.6007045721830364 0.8111118278281322 0.0700623040347245 -0.8339000293672412 0.09877586991933311 -0.7538515606540824 0.07336360049381559 -0.0060539195035637676 0.426096328514421 -0.6669886401222512 0.32114132636756954 -0.2909498903858538 0.06058161823779888 -0.6254514401104132 -0.018216008787394437 0.3145688153563744 0.22692967878015108 -0.4212449139593906 -0.9160112941466998 -0.055900153601729535 0.7478737458040927 0.8135687740090568 -0.7042413538261226 -0.3009028878335076 0.5807888070957159 1.639464445014583 2.0444430177137822 0.947425032571291 0.04191592350749555 -1.6706030754009162 -0.5222728131376941 0.35992821732778013 0.8636978294549641 1.1203582025303287 -1.051940633187879 0.8748042237807708 -0.9056191522790984 -0.5911840342871109 -1.1181444827084612 0.237816500895984 0.9943741476273198 0.018629699286045333 0.2239556837534917 0.6180435776821164 0.9782505025925798 0.3494944235889658 -0.0846581995710284 -1.1808115227203793 -0.8448593565922224 -0.15346040594640667 0.05341158285192092 0.2169265448208522 0.3078623498704763 0.7247739265618357 -0.41952793126828397 -0.1690939987186056 -0.18912983432355815 1.1340367284586856 -0.14499324901565996 -0.2919173965054457 -0.47171001258847794 -1.6587016959776402 0.3632626810176518 0.5141897790192436 1.1879545615230638 -0.40083138330004514 0.5146188961368621 0.1405030744547903 0.13369222218054397 0.33479594103652666 0.2259251487750367 0.18024358757752185 -0.14089388213530574 0.6336753706821022 0.13806001223093642 -0.23709607779019165 -0.16526845432492826 0.4374955714902981 0.20383371619263604 1.7178239560610933 0.6301455031519728 -0.11258372233670288 -0.5544735662399548 -1.1514286986828879 0.5936605208520614 0.024385113712583808 -0.9920290444339108 -0.18345720941881308 -2.5397215616508197 -2.724771312367733 1.2540193143626208 1.1913851844711676 0.17453316745630587 0.3949836662700165 1.3195973573737467 2.7234762477053938 -1.567515208369791 0.9425502209774927 2.8527070916804744 -1.6980395743453143 -0.01618740839313986 -2.848426462027249 0.7959330632051648 -1.695361770402835 -0.32370085956462963 1.0921796832135837 -0.8672752623935773 -0.25758339911026606 0.41788011125221575 0.9227524695252753 0.09404735409541223 -0.37365173756145975 -0.05956500404782645 0.6947038466493326 -0.2496425469966346 -0.1343609661127944 0.01363430295398297 -0.9110891742547341 0.1410661460471119 0.07539271510870241 0.2690831722197495 -0.22476275303581936 -0.15492439208644285 0.6907885707553265 -1.067057434224659 -0.9939247187947271 -0.69603027877024 -0.8505903455387286 0.41190898127044545 0.14429108074231278 1.3850265335118341 0.7934059259079368 0.37283978318312566 -0.9288773514760905 0.25466673968410336 0.5023241379299092 0.5928028008374565 -0.1697488586937851 0.01866363784777431 -0.985966897400231 -0.4502467005083794 1.632410366381279 0.38913697768125244 -0.42488688158735216 -0.28560970911986294 -0.39922212983139627 0.1752834153587691 -0.22658206563274527 0.1852379554683197 0.4967204185898864 0.0995744545612285 0.3480394363099941 -0.9032915325871863 -1.7067867244103252 -0.126454309671208 -0.11051861227755806 0.43671704145306073 -0.15877076241572655 0.8668068073975911 1.4471011913553915 0.07947665537008893 -0.6815449406698714 0.4469263778858948 -1.6556487680839291 0.9926044573214067 0.81551047111646 0.24018680090037345 -0.4268468335272004 -0.053387157371888705 -0.5227662078343448 0.33339854646836775 -0.23305018985559217 -1.2058052165512394 -0.44384773896057106 0.5837864562714591 0.6289597103739878 -0.3326159026660723 0.027216412513791834 -0.026868285145753727 0.7422486863078313 -0.4872268772771544 -0.17173580721682682 -0.46717510083260194 0.33903003372253226 0.3910365086968104 -0.330139930321754 0.5029910820899466 -0.8697797739829859 -0.4346619586962449 -0.958090482704937 -0.23311703853778562 0.1552187833984101 0.5335928661362037 0.037146784253626344 -0.6309705701564294 -0.059537493244000685 0.3623607380286727 -0.16827098859667794 1.2282509471492653 -0.4114621235410139 0.3779249110155169 -0.7329376933195505 -0.6604045591468304 0.26387000344992617 -0.581446752394689 -1.2303263416210553 1.1482140484003323 1.2516472145860187 0.015231986458406026 0.2553326554028764 -1.3637048892159223 1.4504040304763797 -0.5382730452206924 0.19023797978607235 -0.482109353544931 -0.1107790650277963 -0.7386532556470892 0.4400317076485905 0.0983413534850758 0.22184377961681148 0.06394410695212857 -0.3381064934669984 0.4654324071098823 0.9850729248310519 1.2533845089920994 0.20392550457549394 -0.43540140796543075 -0.13566708651872764 -0.17105806442351187 -0.27716157835250976 -0.16243432731024282 -0.2695027762556714 -0.9643709163970101 1.47165136989093 1.4488672821168789 0.5833861355092469 -1.2367397013465669 -1.7003036877891426 0.7311739165509085 -0.06304062130125271 0.16631257931872648 -0.20488298339275685 0.38376620028764225 -0.9768849897036207 -0.035483023397958245 -0.15691802547770395 0.3712444136715477 0.2940627249832226 -0.2954750319497169 0.22183992296206956 -0.7618037256216235 -0.9633062225779214 -1.580402348745104 -0.047315754366828194 0.16822239474692963 0.3470544466889055 0.045717813752089005 -0.540863688766004 -0.1931114446791255 1.5948894866176855 0.9520792435138505 2.1245799323756898 0.5220879508203976 -2.104939532436943 0.7026135884147126 -1.7195375963180901 0.06652960829111768 -2.102595971905431 -1.1569673691129303 -0.5253511949527017 0.8856421949365392 0.6369476136754708 -0.7170583030851329 1.6547113438713243 -0.23364874267153954 -0.6604948048677916 -0.4145011674776538 0.35644488676487 0.16533196057301203 -0.3931083036241746 0.23720200724043664 0.2711554813677459 -0.2969279623461596 -0.4577430088854245 -0.47506607354490443 0.6980570793922817 0.7965817525327571 0.12994638198486652 -0.3184519524608645 -0.7851974219552154 -0.3734434782053956 -0.504633502789376 -0.08976980976598087 0.3857724320843937 0.18265271123964671 -0.03746405838372903 -0.834547433143253 -0.6991150883431508 -0.07639030313528133 0.48881581903082905 0.6552656952583682 1.141469016367015 -0.06888293901464265 -0.18099460681093346 -0.2917675011911427 -0.08804177133128063 -0.8471628079144184 0.24377528958258016 -0.27940820829484136 0.5907235497109246 0.03992280433686673 0.06472623653379175 0.32383764225281003 0.7796788061298314 0.19607644084472037 1.2735776961105227 -0.0626248739200728 0.4196415740280128 -0.5899437341221065 -0.6073174495138638 -0.39414008732279865 -0.9449691148316306 -0.007429202584535592 0.3057782136479379 -0.9108076384585734 -0.22870811083681258 0.6906980679240492 0.5873014114032531 -0.2503578278961043 -0.23260641744995425 0.8015702068862841 -0.36905640488129343 -0.4998173123476553 -1.2551829956534188 0.9092660050030663 -0.3394210985133639 2.3186064326699163 -0.04540825293147018 0.6734860749211369 -0.9967722155458512 -0.18443885660579204 -1.2202548163176663 -0.059497126924368496 -0.26215816296514205 1.2134028263928391 -0.0841213532309519 0.6084981000855263 -0.07342504985937032 0.006242124254969895 0.2322410636907355 -0.3548037516170212 -1.2135396090810198 -0.3300710247570316 -0.3170900391163313 0.527477240156769 -1.1820237978609256 -0.3183257112956453 -0.5405600414826561 0.6183899052779415 0.5410778616593391 1.48006119122118 0.2891470328491601 -0.15958143124248 -0.4267797277346908 -0.1066717277276421 0.008798315017920331 0.024948699525537677 1.3789790417661736 -0.12358932941858713 0.5955695649493162 -0.09915562185625504 0.5461714741321626 -0.19391517152734347 -1.2234301287218543 0.016706514121403483 -0.358260342707054 -1.441743526587904 0.12614500596090533 -0.5253203417147662 -0.26194347585117467 0.24132579960082307 -0.1042831728908075 0.7442307497348667 -0.720783831565836 0.15109113438328173 0.22665817028631932 -1.0074613198285811 0.14553318067953 0.2936829730463007 0.04441580711121383 0.10361365762760866 -0.852910251921157 0.7512290354295708 -0.5775443320164892 -0.47883171123492374 -1.2493813013699773 0.10776007569581442 -0.2128184361897496 0.45704675414934837 -0.01385876025996323 -1.6188506254189732 -0.6011727700687066 0.10638684949737161 0.026738958656741047 0.00031573146820590783 0.6300431732461537 -0.33422798434819856 0.03532027256784885 0.34077272744525183 -0.03557326911891938 -0.18591929780606045 0.2481230250283146 -1.2860981971750367 0.10417390100645285 -0.33396856003922487 0.4246750226868622 0.17115370946111166 -0.004965828645707577 0.6681104124315204 -0.5740232062371082 0.5291929372962951 -0.12003220819494811 -1.123845646858297 0.07816385009593635 0.7125871546876567 0.7530113241409742 0.8685788116963493 -0.19816597638389744 0.2389336452195627 0.6276739016830287 1.3904973268184182 1.674239386601923 -0.8333148462877327 -0.5236928334136722 0.126774154904472 0.6616697990124991 -0.4256600123079508 -1.4404368919613386 0.6521700870521799 0.9009862814927773 0.8420689383312787 -0.5311300064180079 -0.7828178659794455 -0.30903400158107425 -0.33120590969242314 -0.17342733598663682 -0.5587863346826957 0.6968370909422515 0.8817338610210687 1.0336647176968263 0.7999113311266224 1.7675488340900463 -0.935696174170137 1.3916581798957386 -1.6065463541303233 -1.2522951325826626 -0.6441389892175874 -0.2520609266301401 2.1171404453785083 -0.015049952354586985 0.5707928722252686 -0.4470719023248236 0.7162052110562183 0.03157623214438433 -0.05899859002139517 -0.02174921875163351 -0.09399824602503165 -0.9088955090375249 -0.33807872555285645 0.016052168366856225 0.4437101849414423 0.5884632929218382 -0.16953134336634026 0.11715900041221113 -0.3271952458711333 -0.6103418381624843 0.05161798128660788 -0.36085150047299785 0.6266112647464692 0.11909812641645294 0.20687070324674692 0.0984043455125273 0.36994549235446605 0.20948345827924567 0.8100905856524695 -0.8435763761147408 2.042829136259443 -2.0148910150882786 0.2851055157899348 -0.9920645256575367 -0.3197935540904234 1.218533205640869 -0.19673104370958375 0.4769314088884173 0.36762147220697977 -0.39545752058264155 -0.5005009686782412 -0.2627068363797605 -0.22366926286132446 0.030767620200159912 -0.0957450535128093 0.7299636982928913 0.17670317852443118 0.014567613401529749 -0.09764972673468988 0.2584408620145549 -0.06338772022802631 0.788629587565216 0.15676607328087197 -0.15727180927269688 0.09092603485761114 -0.2510692521408321 -0.5062322147350636 -0.048640129605206556 -0.6590076787993037 -0.2868242982532544 0.6644522468536428 1.0388496043318753 -0.3125723537516359 -0.1598557679497892 0.31040080002161385 3.1960282965791924 0.04762917184218894 -0.08072852549931904 -0.9794622635124939 0.9781666846295219 -0.4896938507604083 -2.069329753653133 -0.9778021022012515 1.354132415036139 -0.14720516906531422 1.3365229294844918 0.29822534100134446 1.2660132534997035 0.10747211214175038 -0.9967794146347027 -0.7369804959303565 -1.5283475370313935 -0.36238079263333073 -0.053091223398024696 1.5241926343227556 -0.45868274709087453 0.477230685296391 -0.2036786786720105 0.23648544078938627 0.22525229107772818 -0.9614349736971377 0.43494992225030893 -0.03400618174211563 0.6538855270813899 0.18748664229318035 -0.0852698650130983 -0.4776837136734096 -0.6179453615413552 -0.2774649685255415 -0.18739588235158694 1.048224617788872 0.6726617792476286 0.617239336613266 1.1659047808118759 -0.8155513516567245 -0.4755036753029553 -0.032666379884769545 0.2578896174967752 -0.42385792610220546 0.7522767599677948 -1.0594279427038593 -0.31369001229584687 0.2620938853861099 -0.5956636673250194 -0.3245027866406347 0.24941474725654464 -0.3526903048184442 -1.841808721145886 0.01004915670588592 0.962861164620703 0.37590119571726877 -0.014729335790374633 0.07117636303450967 0.12094906358226266 0.07151266332800586 -0.41348121085357176 0.49592003417577807 1.293210896960418 -0.9083738322061001 -1.4763287207619413 -0.5217089702144241 -0.5658638103547674 1.2654229282138725 -0.35510328513531103 -0.09578027762611892 0.9723570199262801 -0.5509922925595736 1.2750473386775139 -1.2325040659986644 -0.05943233512470409 -0.23641936343814124 -0.25212726109170125 0.51212724006326 -0.9026176464486132 0.9466683569109244 -0.17519522652033698 0.25899622029739267 -0.2077950148332292 -0.5762536382295238 -1.2560941946137787 0.18903804594070023 -0.05202524402735556 -0.026953902881024547 -0.04420369110040774 0.3742253506767426 0.8509117334338893 0.3053827779817321 -0.4855433189271445 -0.41110345465001463 -0.10048462508032373 0.14046116547326135 -1.618850368308657 0.5531011113724603 -0.602813133885607 0.7395623977249198 0.7961012133519129 -0.6668557140888128 -0.6343916800228364 -0.5098957796295799 0.29471527096555694 0.3587401105569499 0.25876019302718667 -3.336367334652293 -0.9241434363355311 -0.8969751034508552 2.9250183396503755 1.409364081815934 1.249281028346687 0.5005652462572734 -0.23941726972420055 -0.014312302857614062 0.40608209017602315 -0.06171547473192597 1.0700329719132153 -1.7524610865189885 0.716764683104114 -0.2657973023796261 -0.1506386202268954 0.1361620238772752 -0.33604138340785356 0.07411384839627881 -1.1802728766080899 -0.5524439374044356 -0.18898328144336485 0.9788053466547851 0.30562420456857686 -0.3410182677971546 0.16227363336266246 -0.23792860099381608 -1.1070753693784934 0.08083574050114466 -0.023578558650888426 0.12782136522206372 0.21185375828363515 0.3090365726842355 0.3296593911409097 -0.19615357393955896 -0.6317586132753635 -0.5338872574481709 -0.12664174309166576 0.03115971343225601 -1.4831174615490006 -1.4062517614391974 -0.3930666517529618 -0.03604686632122824 0.5249945829442313 0.188831586356849 0.7982887079215348 -0.44755732660167435 0.9591433494494837 0.09408437798093473 0.2389117908426918 -0.13844464926386482 -0.17118122026493743 0.5657709935306449 -0.4934013815189825 0.22309796373888674 0.39364489285393495 0.1695773661129273 0.13605018088975923 -1.2134704464059811 -0.6411783639273667 0.5145949848774621 0.2250214060138447 -0.48809231060124325 0.26595851054783876 -0.16306759001886756 0.47145804447867196 1.0898222387250007 0.17202145677804567 0.23409585751128714 0.4633690968229504 -1.0593127572822338 -0.8331353832870748 -0.27547236357554494 -0.540313729799805 0.6647463810552938 -0.30763377879943793 0.1330682154432999 -0.8588721259315466 0.41661744248970833 0.4810600863448102 0.46431320590377456 0.2356056092875942 -0.995420072393331 0.2901021976735778 0.06828438619869531 1.2244847952386138 -0.12735111045386455 -0.18142115282539076 0.06160054642061649 -0.2310827817165762 0.7885997627685452 1.2385952664980668 0.765237691003837 -0.11087008207970583 0.1095171675962372 -0.23945866448509728 -0.2948610525148018 -0.31789093775107186 -0.4916134363806244 -0.41215143629855466 0.6685179322825842 -0.6174815345310591 0.22337204333587984 -0.7482740665663049 0.3657805623434991 -0.1537735663114513 0.15343675179732286 0.23288872457706344 -0.7508251151229328 -1.5286324152616642 -0.5029288613934435 0.11882764636388567 0.08727661103048194 0.0779278228257303 0.41250779119670894 1.329343123906601 0.19210922866685626 0.9172479947672785 0.014996730519148368 -0.4895313570406149 -1.219578359075932 0.2766746114137622 0.5440932514468952 0.1519848498421447 -0.37688721377962187 -0.26997585923734796 -0.5766187348784263 2.7558932305835184 -1.5223542955624363 0.07495974133634187 -0.3023331925221309 0.07738480583806673 -0.23162888402803333 -0.16215767661008845 0.5786411646250937 -1.1234653807007426 -0.28517262158244433 -0.8530652894417824 0.6602204681604824 0.07399994852623384 1.0995230109525322 -0.15689925642462654 0.1639664476840531 -0.503761641707384 -1.1867589985530658 0.3563338151083025 1.202035465096162 0.707317164537969 -0.25527583402301196 -0.6070863073396642 0.19685857042638355 0.13192561719842438 -0.3902541220048311 -0.30422295334567606 1.4576481136333024 -0.8380888706376083 -0.15648479459502726 -0.6995915137589371 0.9849009180295618 -0.635680316927273 -0.23284758692648283 -0.9427739069525246 0.5550224967648892 0.2799630523570469 0.41895046149825915 0.031594486976829456 0.16129841393358674 -0.2740847391993989 -0.6756540291067332 0.5521451752170942 -0.23296148679652778 0.20777187490477764 -0.10748805298135038 -0.36746977712046397 0.19875681589036093 0.23395084729299062 0.4527504407668396 -0.6324468975916397 0.41114562074185973 -0.1466654945117603 0.39375956405492835 -0.0059546749215381315 0.12146611242799726 0.06801339192549578 0.4654036107544759 1.1876498857984514 -0.24589644969064106 0.2362977502586124 0.2462885429227371 -0.8341039178479313 0.6685246171508035 0.09937673672812562 0.9699779781711424 0.537120676783804 0.6688722302982093 0.17327306979695964 -0.6124653122633903 0.10781329753125302 0.05265593563281899 -0.061642455402145455 0.1127395311882768 0.3773510407899179 0.15181438570255146 0.21060291659566954 0.35296052776069536 0.8525531256920543 -0.703070473446473 -0.0665550622124144 0.8965732400267462 -0.07900434371936071 -0.2808817075165743 -0.3523761160121351 0.4032160814821378 0.45320141226132915 0.5109748716263717 -0.3163742439962293 -1.5807342781632259 0.49747195204393035 -1.3465684866459517 0.04983517835457224 0.37552015822876617 -0.7615928951623979 0.5208386517943288 0.1298983023557505 0.19543675037819244 -0.3057746141035121 0.17725185193904958 0.05724329789318528 0.8684047480123301 -0.08248304629658053 0.3316949335136997 -0.3406703975394326 0.4669712123519119 -0.44747402285924875 1.085588403149311 0.5138365094448828 -0.3895792074249936 -0.14139164770733068 -0.42889625985706137 0.12137869492051354 -0.7209087871794746 -0.029940239202858116 0.2744045844326629 1.0885950511861187 1.221902122113102 0.4286522621670553 -0.37493060427388336 -1.0604964931776897 -0.20754998870195868 -0.27204791127502825 -0.012070043790656633 -0.3103228955958268 0.8133445738133928 -0.20335626233558524 1.7107084280622342 -0.5091887262602263 -0.2749861679677458 -0.9571234908059774 -0.44817541980164743 0.45819757992433996 -0.7563409027348393 -1.4748511077751503 0.947645119001897 0.753792682391689 -0.3349928875386811 -0.1481870733626093 0.21686483834498135 1.7450354834788786 -1.1339248854711697 -1.1348060025245423 0.03899797852975219 -0.3191129830836311 -0.5977228638468932 0.3325359413577563 0.16937759139729539 0.03312583601969134 -0.319118896620902 -0.18648674027375625 0.16572688201858554 0.4065505451720095 -0.1604890306584139 1.1574322245644906 0.24462298229485613 0.04724042104420251 -0.11207027303539409 -0.9472707663816139 -0.8598069790409902 0.8920488697938315 0.38313448024091434 -1.4078268192358012 0.0692349230374227 0.07440129772971057 0.05141100748212436 -0.9214759168056967 -0.7208756199486939 1.110983703293964 0.6027324012463426 -0.7389394194289403 0.39914036875086745 -0.15811564533023093 0.2730388144333878 -0.27261406819114337 0.11607836575352266 0.7886005340994934 0.33078167767081096 -0.1015266931915929 -0.4214665430518935 0.8247013935871086 0.6518839232703288 -0.09200769795756411 -0.49196619173435274 -0.2993103465354071 0.8859093325549969 -0.19622890726218464 -0.17021217148344878 -0.595834902795561 0.4819903114685634 1.332112716231938 0.5318748550038324 0.907343848279689 -0.10484547315218072 -0.31485780735170293 -1.312889863446584 -1.0668887698572787 -0.44014612173926776 0.6603073714473336 -0.7004656888337742 -1.0319654756175325 -1.1748733028590732 -0.055331425582453096 1.1433286952835728 0.4024082408688618 0.6935111118928121 0.17546622079353652 -0.07385313853572442 0.38598660497772874 0.2618894826847877 -0.40416301877643945 -0.011577677535270383 -0.27027487853500554 0.5754918203628347 0.18875830991675233 0.21203810638029932 1.6039654807770247 -0.5042622354928864 0.07630185718653311 0.7696854423625454 0.5579083029531166 0.6950026088366741 -0.26644599170721855 -0.5000664522439839 -0.6332467677851159 -0.42696561849325176 -1.632262527949505 0.7029614586724345 0.4427851020240116 1.4652796620366313 0.43145399328190853 0.45895168448154505 0.05063376299646763 -0.46225323805095236 -0.6199181689970098 1.980245399989951 0.051703856132194824 -0.32989464708016736 0.6198155819808744 -0.1048552433441936 0.10723582776122821 0.17112517021602142 -0.5963676353705792 1.1492082939928014 2.0634401276415755 -0.22215462598901095 -0.2793339034134802 -2.3423657398730433 0.9286757769882458 -0.87456254008361 0.23646512907441214 1.5071428779293206 0.6237786803936805 -1.119767620134181 -1.7818346545850992 0.12967513060135086 1.447961482473158 -0.14877765575875668 0.4059046840578945 -0.2980890725337963 1.681115544896466 0.