13.311924173025975 0.0 0.0 0.0 15.86354048658742 0.0 0.0 0.0 14.815372889127529
12.925580889219596 0.0 0.0 0.0 15.403143308484317 0.0 0.0 0.0 14.385395994848057
13.110236217720148 0.0 0.0 0.0 15.623193185696527 0.0 0.0 0.0 14.590906296149463
13.20223685045566 0.0 0.0 0.0 15.73282840771415 0.0 0.0 0.0 14.693297480346123
12.943074429373349 0.0 0.0 0.0 15.423989992921202 0.0 0.0 0.0 14.404865255426776
13.110758515624791 0.0 0.0 0.0 15.623815597141235 0.0 0.0 0.0 14.591487582379456
12.723791331889766 0.0 0.0 0.0 15.162674930595063 0.0 0.0 0.0 14.160816324913396
12.924058975568371 0.0 0.0 0.0 15.401329675946341 0.0 0.0 0.0 14.383702196269065
13.09295381927253 0.0 0.0 0.0 15.60259811439687 0.0 0.0 0.0 14.57167202362117
12.71643947293411 0.0 0.0 0.0 15.153913874666648 0.0 0.0 0.0 14.152634147007289
13.043524434594643 0.0 0.0 0.0 15.543694154693307 0.0 0.0 0.0 14.516660084237762
12.966779451598752 0.0 0.0 0.0 15.452238770101749 0.0 0.0 0.0 14.431247522862316
13.068039097948828 0.0 0.0 0.0 15.572907764204562 0.0 0.0 0.0 14.543943433671169
13.194686550046873 0.0 0.0 0.0 15.723830873273306 0.0 0.0 0.0 14.684894449009168
13.250660798437679 0.0 0.0 0.0 15.790534209621413 0.0 0.0 0.0 14.74719042901323
13.13180865579589 0.0 0.0 0.0 15.648900607130189 0.0 0.0 0.0 14.614915125381478
13.208319742465685 0.0 0.0 0.0 15.740077262381764 0.0 0.0 0.0 14.70006737417976
13.19479979396946 0.0 0.0 0.0 15.723965823677732 0.0 0.0 0.0 14.685020482700372
13.174455576194308 0.0 0.0 0.0 15.699722046583656 0.0 0.0 0.0 14.662378588969695
13.298237533709118 0.0 0.0 0.0 15.847230405932947 0.0 0.0 0.0 14.800140480766226
13.115392520438345 0.0 0.0 0.0 15.629337843363446 0.0 0.0 0.0 14.596644951696652
13.068561925030682 0.0 0.0 0.0 15.573530806258637 0.0 0.0 0.0 14.544525308843648
13.130333838916208 0.0 0.0 0.0 15.647143098825827 0.0 0.0 0.0 14.613273742683404
13.05694383942128 0.0 0.0 0.0 15.55968577761771 0.0 0.0 0.0 14.53159507664552
13.137669822555612 0.0 0.0 0.0 15.655885236473248 0.0 0.0 0.0 14.621438252315043
13.208078437658676 0.0 0.0 0.0 15.739789704510653 0.0 0.0 0.0 14.699798816407847
13.064372958249354 0.0 0.0 0.0 15.568538902513632 0.0 0.0 0.0 14.539863240154038
13.082299365359539 0.0 0.0 0.0 15.58990142541229 0.0 0.0 0.0 14.559814255683246
13.177831726783603 0.0 0.0 0.0 15.703745334341757 0.0 0.0 0.0 14.666136042006544
13.181308421042488 0.0 0.0 0.0 15.70788843787949 0.0 0.0 0.0 14.670005394115027
13.004276948582685 0.0 0.0 0.0 15.496923749810065 0.0 0.0 0.0 14.472979987155615
13.108054949267315 0.0 0.0 0.0 15.620593813887924 0.0 0.0 0.0 14.588478675237566
13.120701226192548 0.0 0.0 0.0 15.635664116527908 0.0 0.0 0.0 14.602553222678734
13.048358468392953 0.0 0.0 0.0 15.549454771256045 0.0 0.0 0.0 14.522040073813255
13.183675430695452 0.0 0.0 0.0 15.710709153575724 0.0 0.0 0.0 14.672639733838196
13.057675162323223 0.0 0.0 0.0 15.560557279762175 0.0 0.0 0.0 14.532408995156008
13.12179609383663 0.0 0.0 0.0 15.636968847307141 0.0 0.0 0.0 14.60377174467454
13.225733376860974 0.0 0.0 0.0 15.760828724804309 0.0 0.0 0.0 14.719447704443654
12.979053716946513 0.0 0.0 0.0 15.466865754357103 0.0 0.0 0.0 14.444908043738453
12.986790816909851 0.0 0.0 0.0 15.476085893904314 0.0 0.0 0.0 14.45351897177165
13.104578255008432 0.0 0.0 0.0 15.616450710350193 0.0 0.0 0.0 14.584609323129085
13.046121107156033 0.0 0.0 0.0 15.546788554854594 0.0 0.0 0.0 14.519550024998235
13.034951234642106 0.0 0.0 0.0 15.53347765234707 0.0 0.0 0.0 14.507118627082587
12.898949517031998 0.0 0.0 0.0 15.371407261507173 0.0 0.0 0.0 14.355756875485593
13.149605414490027 0.0 0.0 0.0 15.670108630734061 0.0 0.0 0.0 14.634721850002531
13.138652504631526 0.0 0.0 0.0 15.657056278066792 0.0 0.0 0.0 14.622531918504611
13.190442548835877 0.0 0.0 0.0 15.718773386154188 0.0 0.0 0.0 14.680171130301401
13.097014195992227 0.0 0.0 0.0 15.60743678006582 0.0 0.0 0.0 14.576190979287588
13.031426385257264 0.0 0.0 0.0 15.52927716335699 0.0 0.0 0.0 14.50319568120822
13.14960118107236 0.0 0.0 0.0 15.670103585859128 0.0 0.0 0.0 14.634717138462673
13.156277809910156 0.0 0.0 0.0 15.678059984235924 0.0 0.0 0.0 14.642147825761409
13.230769027175667 0.0 0.0 0.0 15.76682960353567 0.0 0.0 0.0 14.725052081104886
13.158435265388615 0.0 0.0 0.0 15.680630978623038 0.0 0.0 0.0 14.644548944261606
13.076100054363678 0.0 0.0 0.0 15.582513836684052 0.0 0.0 0.0 14.552914794503513
13.164156200188124 0.0 0.0 0.0 15.687448496483983 0.0 0.0 0.0 14.650916001437372
13.064338032553604 0.0 0.0 0.0 15.568497282295445 0.0 0.0 0.0 14.539824369950209
12.840077494248249 0.0 0.0 0.0 15.301250708268258 0.0 0.0 0.0 14.290235846448645
13.022324008096374 0.0 0.0 0.0 15.518430051644279 0.0 0.0 0.0 14.493065281570779
13.205228289214483 0.0 0.0 0.0 15.736393242462826 0.0 0.0 0.0 14.696626772198368
13.290348559886985 0.0 0.0 0.0 15.83782928149756 0.0 0.0 0.0 14.791360526240622
13.141335433077877 0.0 0.0 0.0 15.660253467554812 0.0 0.0 0.0 14.625517856889694
13.203471420882751 0.0 0.0 0.0 15.734299619366135 0.0 0.0 0.0 14.694671483157249
13.159375613287859 0.0 0.0 0.0 15.681751571467261 0.0 0.0 0.0 14.64559549505259
13.238887663906228 0.0 0.0 0.0 15.77650441243611 0.0 0.0 0.0 14.734087636667798
13.272899999795944 0.0 0.0 0.0 15.81703619885683 0.0 0.0 0.0 14.771941325772898
12.990485532178575 0.0 0.0 0.0 15.48048880850103 0.0 0.0 0.0 14.457630968182823
12.610428344430227 0.0 0.0 0.0 15.027582639062269 0.0 0.0 0.0 14.034650121650177
13.231259574447812 0.0 0.0 0.0 15.767414178418393 0.0 0.0 0.0 14.725598030785948
12.898066849448462 0.0 0.0 0.0 15.370355405083894 0.0 0.0 0.0 14.354774519425172
13.199271870557256 0.0 0.0 0.0 15.729295103433799 0.0 0.0 0.0 14.689997635617994
13.005437963377814 0.0 0.0 0.0 15.49830730676011 0.0 0.0 0.0 14.474272126961704
13.079284113626342 0.0 0.0 0.0 15.586308213242123 0.0 0.0 0.0 14.556458461419302
13.037834192073216 0.0 0.0 0.0 15.536913212175618 0.0 0.0 0.0 14.510327185725966
13.17525886719659 0.0 0.0 0.0 15.700679311601963 0.0 0.0 0.0 14.663272603657774
13.182532937102618 0.0 0.0 0.0 15.70934766795351 0.0 0.0 0.0 14.671368207018988
13.25876832244686 0.0 0.0 0.0 15.80019577572515 0.0 0.0 0.0 14.75621361678401
13.186461548697434 0.0 0.0 0.0 15.714029311890208 0.0 0.0 0.0 14.675740516007322
13.190401273013626 0.0 0.0 0.0 15.718724198623603 0.0 0.0 0.0 14.680125192787784
13.232059161209634 0.0 0.0 0.0 15.768367029171134 0.0 0.0 0.0 14.72648792287665
13.246026264446918 0.0 0.0 0.0 15.785011332789837 0.0 0.0 0.0 14.742032470753553
13.159489386387653 0.0 0.0 0.0 15.681887152481051 0.0 0.0 0.0 14.645722117686276
13.23090608407263 0.0 0.0 0.0 15.766992931361587 0.0 0.0 0.0 14.725204617207794
13.087262518396688 0.0 0.0 0.0 15.595815910660447 0.0 0.0 0.0 14.56533794722441
13.085919466641887 0.0 0.0 0.0 15.594215424088336 0.0 0.0 0.0 14.563843211204421
13.067947550291784 0.0 0.0 0.0 15.572798668784161 0.0 0.0 0.0 14.543841546621739
12.87183447687596 0.0 0.0 0.0 15.339094837569068 0.0 0.0 0.0 14.325579462694332
13.210303098642594 0.0 0.0 0.0 15.742440786287307 0.0 0.0 0.0 14.702274730603289
13.067307775046883 0.0 0.0 0.0 15.572036262060093 0.0 0.0 0.0 14.543129515160679
13.128641530203891 0.0 0.0 0.0 15.645126410071843 0.0 0.0 0.0 14.61139030462512
13.148430111910272 0.0 0.0 0.0 15.66870804733112 0.0 0.0 0.0 14.633413808749419
13.205654806044416 0.0 0.0 0.0 15.736901513612203 0.0 0.0 0.0 14.697101459839073
13.210411050793098 0.0 0.0 0.0 15.742569430598067 0.0 0.0 0.0 14.702394874869672
13.206323156858566 0.0 0.0 0.0 15.737697973242058 0.0 0.0 0.0 14.697845294194174
13.147379165974483 0.0 0.0 0.0 15.667455657129304 0.0 0.0 0.0 14.632244168979641
13.150779658715363 0.0 0.0 0.0 15.671507952918263 0.0 0.0 0.0 14.636028713370676
13.169565449611914 0.0 0.0 0.0 15.693894585428076 0.0 0.0 0.0 14.656936171491084
13.158995134875052 0.0 0.0 0.0 15.681298163332766 0.0 0.0 0.0 14.645172045407842
13.210591500221147 0.0 0.0 0.0 15.742784468392035 0.0 0.0 0.0 14.702595704256124
13.333987158373859 0.0 0.0 0.0 15.8898324829038 0.0 0.0 0.0 14.839927668040602
