0.8133745412808947 7.347849345406012 13.51627418981368 13.279669380754735 7.761143324013532 13.302977228789285 1.6177582089753277 7.8773590844288846 13.195032166862633 7.228281642483893 11.05108288156077 1.3252033826171532 6.533412512576111 11.716034793082095 1.6145646783662186 8.170379828133115 11.288194874930708 1.5880153767955358 0.5372452981598169 12.648604303408264 12.95657966272847 1.3311298512589842 12.011350512513756 13.097769924084837 0.4863005643496465 12.554311950913469 11.95892682392796 5.23022838373356 12.664325685856607 2.334872895368654 5.0959643165244195 12.602553032924098 3.3697272374631035 4.363888358553029 12.216465964941408 2.13507289426329 5.252525856723378 7.514020763665478 9.169813802387976 5.251980067832284 6.581465896455899 9.585325547562723 5.972261660986374 8.030315755561787 9.572495515044759 9.304143098025564 7.353910264481992 6.244221609456459 10.112948986930276 7.749657795837047 5.934342644979509 9.447792071776687 6.418468040919283 5.988004342513395 5.211538442194631 4.849897391763287 12.961793943427045 5.278164622680626 4.8883821645475045 12.005417387909837 5.906274452860684 4.3013835497910025 13.341111897967753 7.4857875036869075 3.3533309404591876 13.854745836221872 7.422728918879284 3.3239834724273343 0.055167276157854245 7.377920982112879 2.424615232181109 13.562112469511076 0.42103086893688285 12.7511473865055 5.287355175129684 13.121004556536437 12.082958015025296 5.659029422810238 0.602934319184031 12.689659608750294 4.368876336540662 9.64607318233391 4.633470797365813 12.819595969410782 10.336043524146017 3.9701682332495265 13.107607436048703 8.791101540397143 4.12801038055393 12.866678914018358 9.70409985980413 4.809160241408993 10.097552415431755 8.816088022069913 4.550742513400126 9.832816848210369 9.549521796306951 4.727795098478623 11.130642927573277 4.8244942468639005 15.521872647185285 13.427544890430791 4.025246319515421 0.14627275400562673 13.202055538056323 4.84560695860232 15.579886012731333 14.43364281392667 11.702579100128 0.765692560085533 9.926760428291832 11.800514926268951 0.8126530349907166 10.906961334501505 11.600063972071526 1.7010788735667148 9.675417987980929 2.9604521287634196 8.353550573561535 12.528607956527773 3.697866168328193 8.064263824587837 13.094969095238833 3.091201847990881 8.331849474774668 11.59889784751397 7.163292828671181 3.79289333903734 9.245046141851834 7.305024885341387 3.7622293217047744 8.270964727184499 7.298342299406529 2.947256018330699 9.625326548510248 2.6340171241924764 0.8411791573010939 2.8533670171383467 2.5478623509446527 1.6437164611127284 2.2725304920815392 3.3927169305099194 0.3537524041664096 2.456360177756524 0.7097784849815719 7.1342155927000395 1.688730732703816 0.811022324279521 7.152744459956475 0.685367078433077 13.157199678362893 7.530994798178504 1.8500113500221116 9.642891632456557 7.591863571459665 1.8675378293883178 9.817956747256021 7.280429774239305 0.9570301709941046 8.759112986609361 8.046115678362751 1.9386807457462207 4.917837459165159 13.343887434157827 9.823601003105384 5.643430510064285 12.707252647737363 9.561814027088323 4.208871001558141 13.04892181833192 9.209607137318402 7.151312096915457 3.3625467855641733 1.8578187935495916 7.228441385573969 2.452154940910265 2.3812902437675785 7.96166216902424 3.82411246360792 2.1377552469841548 5.178804420653161 7.523887561862525 13.87837716401383 4.9039264984043465 7.446775578705438 0.024858687200708704 5.180495035023134 6.605769476418593 13.476065522849055 6.649425931744031 11.425478086542292 9.204688381336469 6.787963126612714 10.599844594290456 9.729672066140512 6.815891543527721 11.258831432589849 8.235334030942976 4.9634840471544655 4.477119585568788 2.773912135326807 4.756550185884776 5.307307087080215 2.327065451841175 5.852587462670869 4.172492175178096 2.5395770093393613 7.511772379672655 8.457774952681824 12.767875150421325 6.767542634931291 7.91882572822786 13.141504919762896 7.317418286746475 9.3570779644996 13.138022520399234 4.855031800916823 7.322849551809069 6.193211647217841 5.160340781825173 7.345819276969626 7.146921824323193 5.678374311018479 7.745057194842848 5.720037971295215 9.242322522166031 15.204871803275765 6.410375722214501 9.956014712854472 15.85895719109465 6.311987290651666 9.222021837802167 15.261933366243442 7.375538147685906 2.6952919111609153 0.6944657786053402 9.997888701533144 2.4638241736403397 0.6339045107725758 11.014239469027086 1.9376570587773148 0.1220690134742309 9.532035252713266 9.55773525352171 4.617861235080523 5.633413287124084 10.281225020401498 4.052976388760252 5.96850769836958 8.818657223435308 4.100519925944214 5.936254237290755 0.577217012874162 7.399263990139491 9.217399937729294 13.171363565682993 7.991370390201183 9.506907664644261 0.5286950492634823 7.276400254792131 8.210058680515653 11.684088837451668 11.59881930716135 9.052638252239749 10.823433003893019 11.994424400927752 9.222852501870562 11.676913710322406 10.70968394302693 9.417837580002544 2.60556954223472 3.2681279697897345 6.767973941274498 2.5877581876912115 2.3785320130789276 6.423916611483302 3.2945947374305447 3.713972265385138 6.25841478300974 9.43047325842758 12.462001743928036 2.4744191340896506 9.263035876179261 13.412244164786317 2.188319259762977 9.362129839723266 12.317532755647855 3.416425467462078 2.6370389309797537 3.3265526737927282 13.852079457810015 1.8903731041147265 3.8948320607771207 13.59611378623382 3.3522753048722667 3.849367846148985 13.452124027223867 2.6213707962281023 0.9047116466092777 5.508964101607716 2.618961337952784 0.8333264532314261 4.497384327737385 1.8699925482058237 0.2686479417358372 5.858636401015093 0.4745288298034397 15.213898619057494 13.80582584607842 0.5433421594310628 14.301856095806132 13.482939800492005 0.12420291491916696 15.153362643880659 14.689592511193858 0.3363963174296183 12.634375187659716 10.348657903492379 12.939749396996515 12.276096729274478 9.73220532531064 1.2035896369496397 12.354129897584338 9.972199350264038 11.816382739883199 3.4434034129911324 9.163665024612456 11.072419233625297 4.015427444245398 9.351435039842656 12.620289840692237 3.9263693403354365 9.523101620400746 2.7308879963995865 8.481744403347776 2.5660823815602734 2.778145327213829 9.344832325452835 2.0658708564498145 1.9703511445462667 7.999603815302199 2.2174763672791555 0.5756089324340604 15.270626052728428 6.477266809991539 0.49058833512577815 14.414360491762043 6.002286705958634 0.4819169477194691 15.10177494413293 7.426843634641167 9.323778186180778 12.598840337272241 9.579548172471629 9.16036100503271 13.514849813927166 9.36937685124306 8.464546728508644 12.14588880536086 9.399895768602141 7.04315271300962 11.377982472285352 13.3994407561167 6.256870599805668 11.928463816650408 13.108139913015624 6.913534507336866 11.169917097460955 14.429449557812166 5.310086616847542 15.8027209674257 8.897788625489442 5.451059893839887 14.889457740727671 9.207711519316163 4.441150766453272 0.18091570547350952 9.29866257884353 2.6164187604357365 11.445339477408446 8.792983846475208 2.924816107752229 10.651590705935844 9.278484364182056 2.628452739888152 11.289781656292135 7.838148811777236 0.5980554989746169 7.054517102676134 6.5498620572767186 1.2195666083421055 7.662360859495176 6.15035124495795 0.48443689496542286 6.177358476720184 6.1304246256633474 11.873530830358 8.687272525424794 2.9693711179593474 11.038274148121484 8.373317449766061 2.6182478188171103 11.98443247064348 9.579373786264963 2.6912717100606613 0.8090082301521422 4.56728790395478 2.997046608315068 0.7549698051641606 5.343333147469675 2.363940812992874 1.5265182806934077 4.0115723110048895 2.7205180074687996 11.50053071502981 11.426160988252366 14.020174449112483 10.636866386608059 11.856602056387162 13.781484992728043 12.25969643869331 11.746937093857358 13.510496814722586 9.211412234236265 15.40005656027034 1.4172460199267067 9.506737272014846 15.48002528235496 0.5007666323484739 9.93387698295473 15.8344645818087 1.9742821557545613 4.873029522398753 4.48316453033576 5.627960722982812 4.87085967875855 4.5504097152958 4.612471236982865 5.015640166064381 5.417828006334346 5.861955063711428 9.604500043141549 7.171415764801561 13.755528071783058 9.640641917271315 6.346447868758378 13.246071415334434 8.852123400806294 7.639612112275891 13.333719786474472 9.114461490484116 12.415601701030537 5.573381833873405 9.380473671233695 13.283114506730714 5.886445010612545 9.885674505524204 11.828507240419992 5.72977298144295 11.534955350941257 3.0519556331439657 14.133335122930127 11.524518802389604 2.7962349009725536 0.22745419238240833 12.416710584314151 3.538204280989337 13.987743939442156 11.721442096681178 0.8482051908796172 5.463909894244109 12.537010443065787 0.5414691716999182 5.94782496178195 11.626714444265925 1.794959887604563 5.800101208041464 7.236508411622823 3.308357935833036 6.64148137539757 7.2676050664910115 2.4817406923848155 6.185715702716011 6.441214125753733 3.803046343604106 6.274104216840068 11.568780950264916 9.058321112669214 10.044513715949167 10.780741663070124 8.549496772618808 9.910167114810154 11.759540823664377 9.083384803502188 11.017009680447494 4.8421724821656795 6.988985162357161 2.02592842796865 5.7300778245065125 7.302479645439506 2.294175680786879 4.192710325612088 7.695341151633849 2.2521592545195572 9.302918401001646 15.340932980248263 9.085751663620151 8.652764024391058 0.10054230089403059 9.448357828554041 10.210578638815248 15.618656991885269 9.346235402260673 11.395126899427792 0.7977596542259353 2.8170547503791665 11.486606442344826 0.6503207756627515 3.8141298516705677 11.491412046971288 1.7342029344864553 2.6586335343732364 9.458295179949204 4.878006850847048 2.812979970389803 9.546473365671329 5.782213975530168 2.4770122969185566 9.572311810491172 4.719308746818319 3.794425541509655 7.33943620932866 8.947117291705007 10.113567991404322 7.358738499379547 8.592994816046588 11.016831300663574 8.128806688940754 8.55146427501158 9.801422006240704 0.7016848350843722 4.703160051604021 5.7290754366162835 0.8891859494462776 4.712678077387735 4.756890971143606 1.3476459555804576 4.016902405443769 6.090170698156534 0.41036668648187175 4.652681235139907 13.071087503272423 0.1586169012912737 4.683901690902904 12.130028978901116 0.7144349960572965 5.609459810767141 13.291198838280991 11.750581898695932 8.779376397585542 12.846797555265944 11.56690396895652 9.581722009689084 13.355587284313499 11.036610157599856 8.152909258848435 13.145164367718062 11.555655393030312 3.21446094748618 2.024151286091551 10.764554363275725 3.6941747717550135 2.2868128555267786 12.416324538513134 3.6732351150308435 2.2821310517951257 9.434080789878472 15.226382541546958 13.421337540188912 10.350273971086983 15.586881428884258 13.126763294933689 9.331232863717672 14.31510146035829 13.153475001979281 7.329199339639604 8.553273365506694 2.36512690543669 7.094656547635058 9.415377536415368 1.9043386437646481 7.371478010813133 8.757627375871651 3.327814644204331 5.104816746099482 15.597891721367766 1.6124760374634708 5.83151468670497 15.788491851677154 2.1580958671205384 4.9593440387366545 14.630342467892138 1.758318816318309 0.45533037276110155 4.802053005093013 10.401756506633744 1.1938293341459771 4.377655550532772 9.82492021479093 0.2919597833476403 5.649958677678738 9.905308262486999 2.9162565405089733 8.677261958446676 9.762561837194808 3.655534249457971 8.351424659271103 9.200214243621916 2.1195511906775417 8.219424950363793 9.406341402286719 2.425539079718717 0.7057662710358219 12.782201443216335 1.5553385965280089 0.28625029906982946 13.14009651818539 2.6723288419624454 1.5664886642153355 13.164453345844777 4.984703254286269 15.570383961256628 6.101194302564217 4.848202783816061 0.035504232961877574 7.035495694225296 4.32763998902988 0.16054446791152788 5.56333665589244 6.86304237894858 11.161555877887878 6.211094886151884 6.076840137289666 11.653468749468873 5.883155634149389 7.664020856439552 11.618680698027504 5.8730372405854725 9.302425859807244 12.603504835502468 12.750822575555679 9.2421894029243 12.353622713273348 11.77826803859099 8.632649706965616 12.007020143580268 13.133045191950938 11.761204814186007 11.08925083054967 1.9282508531566547 12.055012292608863 11.149579139709408 0.9785781826529817 10.95374342962277 11.621313796628927 1.9309624921107 2.497383534480538 11.519421666623753 6.262741158365974 1.8228550247091388 12.088907113938221 5.823213370790671 2.3740618689416255 10.621799950829027 5.946565653755181 7.30463883954037 0.9000391612245457 2.5762899650161497 7.505835261491485 0.6619567285823935 3.513155233272954 8.047830254196239 0.6487885731904361 2.0157062013961835 5.099438728733579 5.222452888824095 10.276521917591168 4.344080215383567 4.630330514453396 10.076218725752064 5.929064467044904 4.806495194189552 9.949739471799308 4.864363459762114 12.846471413123705 5.387685816429363 4.8370873271315835 13.863007216363654 5.314675237109984 3.9628400189922752 12.518967461041667 5.702482205695829 7.390394255063003 1.0266874766142975 10.161465625771287 6.588736869439207 0.6324907844254005 9.694706966107642 7.086749264676281 0.9922934581284504 11.111042450420914 5.052008342905088 12.95296281293066 12.508546886799023 4.895992591597223 13.788194202511246 12.918592755908325 4.937898528893909 13.068180179033034 11.502049605577954 11.824902371353936 8.584428592841245 5.558744042052747 12.430448490060714 7.998159471529426 6.053814502047583 12.029959251315228 8.650960258665611 4.594603972357829 2.6996449103654947 11.151482744866149 13.511000005456328 2.802319781512044 10.252131810121348 13.043752798175532 3.355190616266159 11.682451470778384 13.083013656139038 11.699876779520876 3.389086768787935 6.381307804590281 12.490951185427118 3.7616103172307285 5.927142225194319 11.774876160311704 3.402539799357195 7.403035258257709 0.40792128601128685 15.305938593982212 9.141649764415105 12.929073233809747 15.811303164940052 9.342220525930088 0.34999311677994704 14.487284543574296 9.650898754846631 7.345013905557158 0.7441458796190731 12.759845397760156 8.140467934516325 0.18056959544501083 12.927258818544965 6.612152544059559 0.1714176475760555 13.081916753587182 2.352749478340611 8.857963341941002 5.607263343278592 3.2036210476320854 8.385404676915169 5.86762993698639 2.4535340562545906 8.722108499793183 4.592440784679712 0.2779809317735457 15.496063488598622 1.7311025873465573 0.893168877158847 0.05341010216701481 2.2806494346346677 12.699628908763472 15.716201447455534 2.2186025560641935 7.396357997092519 0.9276707222304958 5.363609870370028 6.41401786466824 0.47130068819148085 5.537838996331426 7.94736516246241 0.12537835782364515 5.715075285963511 2.9814317212601087 3.600864839264188 9.541205837276063 2.9956089205043814 2.7147912176895637 9.851958063978763 2.853930111530866 3.518913971670205 8.59411834244679 2.838767829897789 3.22704071582969 1.7232498832768894 3.767926825250829 3.396384365619588 2.0359882490662056 2.6748714194794934 3.6200286853036756 0.8699861612115224 7.15449364679281 8.611064421919053 5.3399505875373094 7.092260401283914 9.462967665333938 5.834769452165275 7.8177203329413105 8.105604005107171 5.784233394427216 11.419554280285295 11.05796780874306 6.267348415322258 11.650596036232333 10.12120903587964 6.199375068109952 11.622920545876614 11.243508076674278 7.187531180205426 2.8427747190738697 11.251836016436922 1.762643860482125 1.962390613890797 11.662241307498897 2.0097504465211715 2.8220746769848146 11.24011220481774 0.8107867032216585 11.661751428689328 0.6593369419051419 12.733177620064334 12.571541574370617 0.2638250316079499 12.87933189794482 11.710899052736142 1.5542949416728438 13.177372568254698 0.7005266976813189 12.968191654184603 2.5575933675151346 13.189614213724212 12.694021926301794 2.1851789768505596 0.7632870953874672 13.917370452301455 2.185268166742519 9.355460565712578 7.447393251987066 9.208941541109752 9.184588707027618 7.357733449104484 8.25454979348674 9.42541472724183 6.5162987028592685 9.628749044215134