-44875.90157175221
-44870.67093559882
-44876.897207307724
-44868.55324094258
-44869.331472643324
-44869.43148808472
-44867.6490376777
-44869.891859392774
-44873.50671105573
-44869.98941914284
-44870.57780300486
-44869.97967665107
-44875.387598371766
-44875.86964327496
-44874.68029069404
-44876.99857542702
-44870.43607713793
-44875.13767609694
-44874.669596756234
-44873.87527931803
-44876.769456119095
-44873.789793395044
-44869.33809956769
-44872.82783587271
-44874.54277048254
-44874.600287320674
-44876.56493726276
-44876.78627520335
-44876.30493031302
-44874.86990709994
-44867.896045749374
-44877.32180843535
-44873.61824439563
-44869.89857040031
-44870.742832836986
-44867.634153594954
-44871.49747281215
-44872.13398857813
-44873.09245583231
-44871.68702064537
-44876.35784257683
-44873.3538292017
-44871.514881022864
-44872.291551470465
-44875.87230754155
-44875.96938741886
-44876.03238626238
-44875.32445870933
-44875.09126640147
-44876.88680072214
-44876.831293852876
-44875.32756937867
-44876.59777147093
-44872.03065579692
-44872.74865523555
-44868.23002494136
-44868.9824905909
-44870.40315340431
-44874.816138357826
-44873.777227177976
-44874.51897780089
-44872.85372859291
-44872.96770170549
-44871.5494861479
-44874.43006229115
-44869.41907016969
-44870.93456574433
-44873.78391641642
-44870.87858117922
-44870.30629693246
-44873.14315336159
-44870.44099586768
-44869.08234249188
-44870.43249190205
-44870.80359245573
-44875.51289427723
-44875.49554919693
-44875.026860457285
-44874.28027886133
-44875.40766486257
-44872.093209870385
-44870.87671515857
-44873.81840738969
-44873.1139211243
-44873.110522694566
-44870.182907456554
-44874.23544837853
-44872.30561172857
-44876.4436231991
-44873.7464938247
-44875.91544343542
-44876.8662163987
-44875.472200332944
-44872.62864378082
-44874.659358337
-44877.16779975791
-44876.25418938158
-44876.3256423939
-44873.91220775102
