0.766331695398964 -0.6582594877793696 0.9609901728502351 -0.04687043929929347 0.6277577196460866 -0.291656172424259 -0.93390282971514 -0.486102276754408 -0.30167653277473855 0.23572028048858762 0.05362858395873345 -0.12607892860966027 1.066995727748788 -0.31531906325883763 0.37740760505946613 -1.6988893239401195 0.5171712302450706 -0.03785872271898641 1.1304035025814725 -1.5696296836096322 -0.4269152248712905 -1.1066423956061329 1.0732121409721451 0.44392461494509355 -0.5741533040570691 0.5114898635895773 0.3445872160953356 -1.4998460871575912 -0.8444168697381651 2.64706948950988 0.9139574969414648 0.3921156006936021 -1.990351120965385 0.4647286961746383 0.19704857495000258 -0.5012951824447625 -0.20364731121344282 -0.7144236936757632 -0.5756026349090861 -0.29401850200884844 1.3103311015804724 -0.3566395192741793 0.16134083713574796 -0.009279625529713051 -0.15557385274498367 -0.28186206915197265 -0.980374233803802 0.4057691869212947 0.982050078844328 0.9772094629225749 -0.26704531585411434 -0.35527349216458814 -0.10468143677049067 0.22213688537719808 -0.8718130023629308 0.7024418387235386 1.135413039980922 0.19263064838796504 -0.03620704604817635 -0.8280685102871287 0.6497823035462938 -0.3054943638589319 -0.11121152457952459 -0.6339599918020566 -0.23921286702287836 1.2372642063914692 0.0689281904302813 0.023655177525094745 -1.3302736061406704 0.03172278502457762 -0.07362611012658288 0.0181257630664333 0.029689042424000483 0.4498638632476639 2.4010488555365486 -0.18235960547926014 0.1393123965807988 -0.8166875221436968 -0.4230868522641359 -0.3471925149286666 -2.0320978658848676 0.016321877088475118 -1.2547309957176649 -0.7071425866333176 -0.6851069469895169 0.775061104852162 0.0879497258381066 0.5787820610783322 0.37418961234280074 0.8493137928191502 -0.6545473290351049 0.23873978404120172 2.308463173588328 -0.6758826001777715 -0.42719830332934816 -0.9007304567282294 1.266142579988716 0.2584393193526581 -1.5101181585075607 0.7385918062815344 -0.2516631769710892 2.1779498633563974 -0.7867750508549806 -0.009379898553003202 -0.41142484254517525 0.16807789874926538 -0.0370267137359943 -1.4120639972456004 -0.5673033710147714 0.17727627741908178 0.5685153890450015 -0.31664395271784823 -0.2234777156758087 -0.1859655776629636 0.14836910746642834 0.3179544439991556 -0.2747270007690882 -1.0979196710211543 1.1420554849981042 2.4731096780585404 0.6767626887898797 -0.10431891122474939 -0.6343438575040365 0.6062077613894528 -0.2006211227926093 -2.0517891736662084 0.16319434540471894 2.637463076768367 -0.255151906850638 -0.20761632316351986 -0.7554638994465247 0.20384014395053926 0.16946372335319848 -2.0294650562477115 0.3021156771946861 0.2188404740141134 -0.27814193998790804 -0.4577810612122116 0.2588576378369994 -0.07890767024049636 0.39933243015701547 -0.2514700871236766 0.35916845634362016 0.15577696989472528 0.21357871139454185 -0.8921529994718636 -1.8340853843596994 -0.2266838813179322 0.014569927394374906 0.9874815342725445 -0.34267020157828076 0.3869065456888369 0.4325667667301131 0.783568885212857 -0.7632363443030921 -0.14518042532580158 -0.5803694601701102 0.5536832091281756 0.16187819769645667 0.08200404977763297 -0.36000509331230257 -0.23656205966359256 0.22649130569115186 -0.7740218649543701 -1.031371036566643 -0.287809287874343 0.03123376120330105 0.3063397425783627 0.06482702377771417 0.06065592311916006 0.6688820004902222 0.8094928041674705 -1.3112518136225289 0.7727393986975207 -0.3341439092748245 1.0811486222104028 -1.3023455122718344 0.04306520662059035 0.3675433106708767 0.020451582986132522 -0.346077684597933 -0.4366494214399189 0.35735557150459746 0.7154593340291292 -0.39170165308463506 -1.062426620320867 -0.11650825420208967 0.29081876412462815 0.8357103431031027 0.6254892353268842 0.14275201838996707 -0.5463532511256656 0.0843992894826869 0.11694457040855988 -0.7458232910329672 -0.3366587052768783 -0.1661490571576687 0.8964675676868173 -0.8004234948763506 -0.7880683157451073 1.1536138792596649 0.3019740094104993 0.63946138123626 -0.013100027717067761 0.5715413203555189 -0.09574453929217704 -0.5444462639109399 -0.9055214503589696 0.3045014038180433 0.8597401303587968 0.3203450557185193 0.5512481173241216 -0.04794644597229162 0.2034033135234368 -0.40642918910279685 -0.5870227038205695 2.0325380387460803 0.834199562885531 0.32845585775111175 -0.5739890105650631 0.10636370956892005 -0.7554808687273892 -1.3838397122925843 -0.4936214679495885 0.8451892291278154 0.6472189136944918 0.16880063584790284 -0.39652941349058163 0.2486760693183072 -0.1726349219923285 -1.0160467475047468 -0.6446431825475155 -0.4743423080050025 1.1388791441526513 -2.049592937345838 -1.7391013773826305 0.8123410722495428 0.657382484491055 0.12158284051151964 -2.014740862663659 1.5582648934161163 1.6425615958826678 1.329757071515568 0.44936198391058096 0.4358156126847139 -0.661953391691189 0.9589572015806064 0.3425642721280358 -0.12808644595799232 -1.551631704370315 -0.19702106414617682 0.21715254478872922 0.015149968267561004 -0.30892704368956475 -0.8472180866323861 -0.08573189225118139 -0.0785186623321938 -0.37108449105491575 -0.15016142348016076 0.24282295297163983 0.8636551491424866 1.1608003697057752 0.33777816359330215 -0.8063174917632823 -0.908699590976635 0.2315358100935948 0.220143251985937 -0.2598449414509331 -0.8327103799345141 0.31151434480076673 -0.5259865145438554 0.975451599691204 0.660657555697901 0.04802409328776246 -1.3436029762597248 -0.632257150178337 0.7254290436473313 0.3110176076700063 -0.07130311842036106 -0.18097686619912057 0.7891507501760088 -1.8744501613299913 0.22261896721993918 -1.2686663748518343 0.9124228054644932 -0.234665356861512 0.6839838891286671 0.7848179271286096 0.5160024067479501 0.69379881833656 -0.3300694820951348 -0.9166646114599827 -0.2971845584416559 -0.36305365033063924 0.5468633579928646 -0.25586204554378517 0.1764473537598832 -1.466986874535725 -1.5871692351552924 -0.3852561545696075 -0.26896618702591096 0.3911522083390683 1.0453200425475675 1.391874666781919 1.184673576778947 -0.6159661263277972 -0.38899582411769784 0.29352125065745577 -1.0365240415224923 0.1048884105749742 -0.8463346555861682 -0.33675023654942005 0.09841077327043052 0.36802307852077265 0.9540685060297376 0.7981964053180447 0.4915036502756374 -0.4593370928454218 0.12573440078604797 -0.08503949416984709 0.42615752076965957 -0.6312361651129903 -0.043151595686809555 -0.1304940269582204 1.1502465054493287 -0.5290661819104436 -0.6749287209049344 -0.8373419651692547 0.47993934247680575 0.5487901427019323 -0.7732752165963328 -0.36792923325538573 0.06066723597306971 1.1952937754969544 1.6864976351439858 0.0009384526538693515 -0.20277262191797338 -0.7505456362093009 0.8808298611495603 -0.7055369327090946 -0.3867376242111404 -0.22880889808073496 0.17308717903839868 -0.10919449414949581 -1.0567169715305993 -0.07374823752674396 0.14784743063500344 0.3060330099712213 0.09503748592282342 -0.04242860147785596 0.6292492165899485 -0.8839421815262971 -1.330528916684586 0.4266154342426846 -0.010496014435317407 1.1899391960532604 -0.11006198435611367 0.5088879071903558 0.22121205957008355 0.1024252937464623 -0.8189179541361121 -0.9315047617966087 2.433170675771758 0.5908950422917824 -0.21388750088421232 0.11676073653252796 0.5217171977445402 0.7823998046054202 -2.4483525257185192 -0.5614939634218459 0.5816262153953468 0.06717881183934236 -0.4342531532936005 -0.2733018382867874 -0.015472641714302387 0.23488801439527934 -0.035184004100300696 0.03235193396814428 0.3872575012703524 0.2622723199455031 1.904551608701062 -0.35844109125929235 0.14820172865062864 -0.6413208030425019 -0.09665548114222064 0.0029457128918852493 -0.345367803015102 -1.6325882867200399 0.5912236292757946 1.5345204986113252 0.7028156771231896 0.20671258040232787 -0.7010287604260959 0.8335814696855579 -0.172034055183536 -0.0771156113370801 1.2013366392569245 -1.626799962173037 0.5374495208781325 -0.9580349468766531 -0.24188115788366085 -0.4001896359509882 -0.17734415454253974 1.6585703126060984 -0.7659755976111259 -1.6733844948007954 1.514687780156114 -0.25479940860722566 0.3606370704693467 -0.7534759224822184 0.940306933469271 1.2028026822794897 -0.5579417272942133 -0.7487376364662847 -0.5628725889369274 -0.44360194149835214 0.31719005502930536 1.2940783871670358 -0.02764244430761691 -0.5451862274007578 -0.12166897246742271 0.74811234417746 -0.3325855636487692 1.3588982118558983 0.6879099636559507 1.400016322052447 -0.09071031930237926 -0.16932179845869547 -0.5970235237870235 -0.5892677911010045 -0.5377583103678029 -0.7738822540527124 0.22893848168006378 0.37330412441405386 -1.6310877909151136 0.030067765919657895 -0.36857020927349426 1.1072545752688352 -0.32915211248718795 0.3405025045030007 0.23357803733460414 0.42350259964531584 0.21629713876696943 -0.2403680636732441 0.19620833843689434 -0.5041791888607768 0.3843321000934413 -0.0054260561115777525 0.34851868993925783 0.3276634437568034 0.11790179211550664 -0.6547735861132981 -0.5737599252733925 -0.036832852557633335 0.57558643695917 0.16045406365542045 0.051930884541336375 0.12978491670633777 0.23803735865753844 1.8819086744905655 0.9201402287134088 -2.3212996632313634 -0.08551411981342047 0.06708213836047802 1.4948460628398386 -1.4595332464711572 -0.5075792156812613 0.13922420774236668 0.5114181298113774 0.6524662781363603 1.1324123054813853 -0.6781179172661934 -0.25051312252704594 -0.6626216214028072 0.05791435581828091 -0.6998198277196592 -0.427795827704031 -0.6878060910882348 2.5934902707318432 0.38869937592320153 0.06697826579276206 -1.7303768530254393 -0.7000609971961879 0.6945212983248813 -0.7403273009154024 0.2350988448545048 1.6325774880867625 0.48303212246951643 0.8031768892517717 -1.0026417869527506 -0.7373872444504719 -0.2371639549136496 -0.5179839559543531 -0.2504737846486783 -0.5211176164873284 0.46634412029087424 0.2910925866113051 -0.47469660602062763 -0.3836620706096102 0.11810979436125466 -0.20269034661681223 -0.12312601662892343 -0.279175523458745 0.19696578542820917 0.8652284071668777 -0.8091053389210646 -0.5529190772686413 -0.23657877183414094 0.45650270872042026 0.6695042074552535 -0.7095995328142424 0.2765208594447173 0.13752882231781477 -0.4710178716174598 -2.7609945563658256 1.2205993441412786 -0.06550682345355816 0.5203876802998393 -0.8623752539887987 0.16806864277788475 1.2831928506027837 -0.327924410727674 0.1730673815440568 -1.6135438684940793 0.37210316212741723 0.06649232729527903 0.5369574117330624 0.749745766015825 -0.20624026875159965 1.112389325392239 -0.7706426640694921 -1.6871419535962042 0.8947421003552785 0.7671246236139047 -0.3404153441058331 0.4690949435631341 0.7044544982781932 1.7813104066505128 -0.8845055102289348 -1.3801401519538101 0.2563945210084875 -1.1836690467738324 -1.0279041610639652 -0.32880115690567246 0.05721501575841114 0.2985611270742084 -0.13993794597993964 0.7695221773118037 0.18035594478567005 0.28772238458749155 1.3412391040132385 0.9773305618814717 0.5194631116030408 0.04564967951831493 -0.04232087225539808 -0.8636582344662804 -1.1760745222560263 -0.5801221200459944 -0.14733758087812046 -0.8469483779107672 0.4028214171468804 0.08161812719312396 0.4830364933448907 0.08822791920015773 0.19752011526978241 0.3115413413839602 -0.2060914018785612 2.09821944010429 -0.08647057018941881 0.018585476311671217 -0.27209367691129915 1.1691086324611542 0.3113521081912896 -1.592893025012947 -0.26530673589645276 -0.0485200590875745 1.3937952808433995 1.7589592926488224 0.37682756418628005 -1.4255990556175577 -0.5610920999977369 0.29959316788314855 0.18399534131047024 -1.0215977592299632 -0.35633947153525725 -0.6812968292148073 0.861390007257394 0.019666368080675806 0.3524283094063092 -0.5897056499693714 0.6482913208230642 -0.12084621945581123 -0.12358418721226458 -0.34119541680496723 -2.8631591402517333 -1.7079869153660132 -1.4248220682422172 2.119848331227975 0.9675783675907144 1.0462027022628368 0.25219102445010116 0.6809679851204787 -0.14440035262666745 0.8869282607378145 -0.29463145300249904 -2.5698548907010905 -0.8661169804194181 0.7283667861194165 1.7304868962407423 0.349854635141862 -0.07349292698282826 0.6230353744697528 0.03142273728565556 0.19522977657370894 -0.8383740059781949 0.06228497408215079 -0.05777448780630695 0.7597591843877689 0.01553743351396679 0.2061677636424514 0.4116865808469943 -0.5406734271320689 -0.7120837326886769 -0.23740563861081046 1.670438010577962 0.9350737100947896 0.22730788805517627 -1.022315354122278 0.15536919293334533 0.17462572717011218 0.505081388960072 -0.0749132043691226 0.44762674638702915 0.3516454084936976 -0.6384961891095132 -0.8102656777777528 -0.8030030826780686 0.39153941647515794 0.282776610546442 -0.3254186135866847 -0.4590676412341191 0.15105462471839148 0.5447280568174167 0.0679740540471281 0.14376400459424918 -0.14319861900908243 0.2697886829272063 0.1850975732357135 0.3948134592407394 -0.6822391385234186 -1.5673020639177202 0.3837214630926359 0.7092516625565205 1.3101416112774857 -0.8527536717386347 0.2069838317858435 0.10079675700410383 1.1405943270715455 0.37000797016128534 -1.1767028998686444 -0.7386198313059925 -0.18289773737091727 0.7709514535591625 -0.3770005994290346 0.14152740195424657 0.2763221131703499 0.8118304511617116 0.8677195490198475 -0.24395038170786373 -0.21842138419882381 -0.2943650867149898 0.367488031952909 0.01076906559104597 -0.7946392840944058 -0.39699992536909695 -0.6193016184589335 0.2186090747295977 1.222915393868965 0.05416208786470026 0.4164004413828957 -0.16000900569820184 0.44113676778731126 -0.763780132621704 -0.2875125825695306 0.33566445968440906 -0.14870180821549872 0.7355928715542106 0.11252612962589008 -0.0861682084576516 -0.40713135737614403 -0.36865685545002963 -0.5525012730049322 -0.27158948358137097 -1.234942500236828 1.1813380846478105 -0.651920175824903 0.014479167452781515 -1.9508990856173498 0.8955149739655609 1.109037892421503 0.40099773367458036 -0.3683953742585268 -1.2670008142239535 0.26156963745152373 -0.16693170095996412 0.6554960661016195 0.5518633823106173 0.018323480899536185 1.0001668430496968 -0.12378139082473523 -0.3103534917234461 -0.3796616912009655 -1.9154451156851142 -1.7995598397790038 -0.19935408315472763 1.6192146936266114 0.3841050716842998 0.09212853980614456 0.08084628202410593 1.4452528252927432 -0.5626802704204632 0.08229689842770344 0.7951794728685918 0.36287084489587185 0.029779802365593872 -0.6025336549719752 -0.032624213792924454 -0.46340046428151804 0.10508355730491578 -0.30640710548118844 -2.39695977306884 0.07509369581104487 -0.2615678376793108 1.1549164001211722 0.8569304288241435 1.1605861968124398 0.9491983224216298 -0.44180422616798104 -0.20345062182160445 -0.9275974563224025 1.0144716897081432 0.06770203133266404 0.3116860944919407 0.812725195061839 0.45764350719308283 0.20638347919768327 -1.3550197027370987 1.2269980485787706 -0.8804359681452514 -0.4487552035645174 -0.9128413810591506 0.8272606696738527 0.4670231486357699 -0.03258641857645356 -0.5130428098989939 0.1373439600005183 -0.8026724388115273 -0.421015571557404 0.6503716003908605 0.3632122873956906 0.24389793120337352 -0.034197986037947554 -0.045737097025798645 0.6749737152102568 -0.2843634954175877 1.799723876160694 -1.3095338024901577 -2.2803311912388016 -0.7553561702240669 0.5357505359091547 0.15954029359189945 -0.5068590496857851 0.4753779483583684 1.6650811171414226 -3.314418855405659 -1.3492195511155538 0.11371140818324288 2.088183653134842 1.2786797932237786 1.1026777545314301 1.2339639383736425 0.03291063468509171 -1.0379502324460574 -2.393821998770806 -3.2291811291820776 0.5661620583214766 2.4573858395653807 1.4346861055204905 -0.2611101813166019 -0.2792799102470932 1.7255323804489444 -0.32514144866589806 -0.43408885980159434 1.712149274273819 0.2073443004490558 -0.14590650485854872 -1.761604186470837 0.47401783478604814 0.10750785047569227 -0.15141509338160375 -0.9482462429210057 0.12353610758314854 -0.7421882653835412 1.426129988420363 -0.5861487858560487 0.5791803249580154 -0.32015685096711316 0.4459416453751224 -0.11734617672235274 -1.0303418239711803 -1.22842861037771 1.0965952957827758 -0.625069374180646 -0.1946214535657487 0.038472187933269224 -0.43765395144503333 1.421994626095751 -0.8558204835894164 0.4362303316246294 0.4974228439735498 0.8564169795228348 -0.2570740635740153 -0.05324728935991475 -0.9284387212767752 -0.7169821984315587 -0.17990471618086437 0.47054247464293797 0.8185621134585902 -0.9177385612504516 -0.04213163906272743 0.8301945554911961 1.0078989215866319 -0.05914668556348523 -0.11058417540817084 0.018880124733954583 0.002147385360305979 -1.085924446332491 1.2478900615364314 0.4989593352227342 -0.23815305829979633 -1.0673986196141616 0.10477348226366473 0.3092947114416286 -0.2767751415473685 -0.5714832134240738 -0.14575069600697477 1.2651640181255308 1.3042514710452957 -0.18235317772135692 -1.2190451122802812 -0.8446688378479712 -0.1950135467978448 -0.15593252163598306 -1.017492735922654 0.6084055403717199 0.017300953172292785 -1.1389987004496511 0.8703708705997656 0.3045543685431658 -0.2270960291546863 -0.011312596799341807 0.02394416952042328 1.2910213455082669 -1.040676116017653