17.727078226873576 0.0 0.0 0.03712050180707327 23.0082939180673 0.0 -0.03426644221254663 -0.0299233080469626 21.70831409045598
17.69690983422534 0.0 0.0 -0.09034272470372037 23.107439168572558 0.0 0.023306830251674775 -0.03410194525055223 21.61187331848217
17.669313242809707 0.0 0.0 0.1811281300520423 22.964488374041405 0.0 -0.09016650547805793 0.11675882190848655 21.947301349279336
17.701495683912935 0.0 0.0 -0.37406800679244817 23.196854213000968 0.0 -0.28182551278357787 -0.2821087367145204 21.564705504961463
17.456582417519957 0.0 0.0 -0.3190190436801772 23.278125718191436 0.0 0.00867592146150742 -0.2430829101639654 22.12085904340437
17.865804148752293 0.0 0.0 0.14069320767142432 23.111365039063305 0.0 0.00904009689926866 0.11173273914629683 21.65003158871611
17.608313398471168 0.0 0.0 0.005986826555480197 23.182013704996436 0.0 -0.15555184056209428 0.06037890664335764 21.963465592882034
17.67129236556895 0.0 0.0 -0.07040242878442668 23.1444273657406 0.0 -0.07271736808431623 0.035660667993718136 21.8033883307023
17.78989261985956 0.0 0.0 -0.047463433509785304 23.262668446077438 0.0 -0.2438994278182746 -0.15831225442413024 21.722028165412357
17.815249733329445 0.0 0.0 0.03632529420625874 22.96047200881232 0.0 0.19386554759809102 0.24478153133594657 21.982771103447202
17.96419353792426 0.0 0.0 -0.09853360155551456 22.679542842919847 0.0 0.08647962769156738 0.08637184253033983 21.997496306865475
17.517566386542246 0.0 0.0 -0.022107168779816316 23.303548493751602 0.0 0.011824357310916016 0.41118983579130614 21.97976351948699
17.81886507201692 0.0 0.0 0.16904757293822453 23.07993844112513 0.0 0.006486066886214159 0.13834566841913937 21.744521417167896
17.8962620013335 0.0 0.0 0.18520841545180042 23.05024228762154 0.0 -0.000393717764029337 0.0790656855218914 21.697070125176708
18.009917623789253 0.0 0.0 -0.015740668003191807 22.933126715345907 0.0 0.04174698905194349 0.3241785172282065 21.67127984695274
17.665576722541523 0.0 0.0 0.05488694687693651 23.376610358865083 0.0 0.06258913832796462 0.15294856326376452 21.675079674526604
17.620115637749077 0.0 0.0 0.07863857609127413 23.21903072245331 0.0 -0.10179140803927642 0.2712440601275093 21.71127742733112
17.600546664584165 0.0 0.0 0.048577508794252294 23.184496099390138 0.0 -0.09439173176216487 -0.4132608356844362 21.87492742481175
17.83606227293399 0.0 0.0 -0.05174241665378151 23.179621677469104 0.0 -0.04114779566365872 0.17556036095248925 21.6913092971664
17.85345315270932 0.0 0.0 -0.05506004952295555 23.11441946048394 0.0 -0.05129297090773388 0.13284754490931006 21.694337943264287
17.961635495299078 0.0 0.0 -0.1517219350287913 22.975715851989293 0.0 0.1494767305918789 0.6596769868358493 21.9409999160116
19.64071530658207 0.0 0.0 0.0 19.64071530658207 0.0 0.0 0.0 19.64071530658207
19.44497530309814 0.0 0.0 0.0 19.44497530309814 0.0 0.0 0.0 19.44497530309814
19.392974646364863 0.0 0.0 0.0 19.392974646364863 0.0 0.0 0.0 19.392974646364863
19.35421135749855 0.0 0.0 0.0 19.35421135749855 0.0 0.0 0.0 19.35421135749855
19.33289874543211 0.0 0.0 0.0 19.33289874543211 0.0 0.0 0.0 19.33289874543211
19.321779673930184 0.0 0.0 0.0 19.321779673930184 0.0 0.0 0.0 19.321779673930184
19.317364219303684 0.0 0.0 0.0 19.317364219303684 0.0 0.0 0.0 19.317364219303684
19.31849401264352 0.0 0.0 0.0 19.31849401264352 0.0 0.0 0.0 19.31849401264352
19.296220414766708 0.0 0.0 0.0 19.296220414766708 0.0 0.0 0.0 19.296220414766708
19.240648870231464 0.0 0.0 0.0 19.240648870231464 0.0 0.0 0.0 19.240648870231464
19.222962180396664 0.0 0.0 0.0 19.222962180396664 0.0 0.0 0.0 19.222962180396664
19.207346690155354 0.0 0.0 0.0 19.207346690155354 0.0 0.0 0.0 19.207346690155354
19.202257063765412 0.0 0.0 0.0 19.202257063765412 0.0 0.0 0.0 19.202257063765412
19.157998269590347 0.0 0.0 0.0 19.157998269590347 0.0 0.0 0.0 19.157998269590347
19.131238836518325 0.0 0.0 0.0 19.131238836518325 0.0 0.0 0.0 19.131238836518325
19.120211841850654 0.0 0.0 0.0 19.120211841850654 0.0 0.0 0.0 19.120211841850654
19.110759678555045 0.0 0.0 0.0 19.110759678555045 0.0 0.0 0.0 19.110759678555045
19.101027051339003 0.0 0.0 0.0 19.101027051339003 0.0 0.0 0.0 19.101027051339003
19.101371016524432 0.0 0.0 0.0 19.101371016524432 0.0 0.0 0.0 19.101371016524432
19.02190817938644 0.0 0.0 0.0 19.02190817938644 0.0 0.0 0.0 19.02190817938644
19.028120719812513 0.0 0.0 0.0 19.028120719812513 0.0 0.0 0.0 19.028120719812513
19.044738471686436 0.0 0.0 0.0 19.044738471686436 0.0 0.0 0.0 19.044738471686436
19.052541189623614 0.0 0.0 0.0 19.052541189623614 0.0 0.0 0.0 19.052541189623614
19.020331231305548 0.0 0.0 0.0 19.020331231305548 0.0 0.0 0.0 19.020331231305548
18.997053255087284 0.0 0.0 0.0 18.997053255087284 0.0 0.0 0.0 18.997053255087284
18.976538113073836 0.0 0.0 0.0 18.976538113073836 0.0 0.0 0.0 18.976538113073836
18.972805297046108 0.0 0.0 0.0 18.972805297046108 0.0 0.0 0.0 18.972805297046108
18.97876700747542 0.0 0.0 0.0 18.97876700747542 0.0 0.0 0.0 18.97876700747542
18.969894293222954 0.0 0.0 0.0 18.969894293222954 0.0 0.0 0.0 18.969894293222954
18.9548328515188 0.0 0.0 0.0 18.9548328515188 0.0 0.0 0.0 18.9548328515188
18.946888314089787 0.0 0.0 0.0 18.946888314089787 0.0 0.0 0.0 18.946888314089787
18.941109169797357 0.0 0.0 0.0 18.941109169797357 0.0 0.0 0.0 18.941109169797357
18.919727235516625 0.0 0.0 0.0 18.919727235516625 0.0 0.0 0.0 18.919727235516625
18.942147415480147 0.0 0.0 0.0 18.942147415480147 0.0 0.0 0.0 18.942147415480147
18.990775625864586 0.0 0.0 0.0 18.990775625864586 0.0 0.0 0.0 18.990775625864586
19.009768325049606 0.0 0.0 0.0 19.009768325049606 0.0 0.0 0.0 19.009768325049606
19.03110739597646 0.0 0.0 0.0 19.03110739597646 0.0 0.0 0.0 19.03110739597646
19.00910420765312 0.0 0.0 0.0 19.00910420765312 0.0 0.0 0.0 19.00910420765312
18.992086926986886 0.0 0.0 0.0 18.992086926986886 0.0 0.0 0.0 18.992086926986886
18.982410921732143 0.0 0.0 0.0 18.982410921732143 0.0 0.0 0.0 18.982410921732143
18.98524254897404 0.0 0.0 0.0 18.98524254897404 0.0 0.0 0.0 18.98524254897404
18.95995528689566 0.0 0.0 0.0 18.95995528689566 0.0 0.0 0.0 18.95995528689566
18.935080783039794 0.0 0.0 0.0 18.935080783039794 0.0 0.0 0.0 18.935080783039794
18.951773678077306 0.0 0.0 0.0 18.951773678077306 0.0 0.0 0.0 18.951773678077306
19.004626839293238 0.0 0.0 0.0 19.004626839293238 0.0 0.0 0.0 19.004626839293238
18.998985810252194 0.0 0.0 0.0 18.998985810252194 0.0 0.0 0.0 18.998985810252194
18.979831712018626 0.0 0.0 0.0 18.979831712018626 0.0 0.0 0.0 18.979831712018626
18.95780471072091 0.0 0.0 0.0 18.95780471072091 0.0 0.0 0.0 18.95780471072091
18.942376549211364 0.0 0.0 0.0 18.942376549211364 0.0 0.0 0.0 18.942376549211364
18.972851335463236 0.0 0.0 0.0 18.972851335463236 0.0 0.0 0.0 18.972851335463236
18.99471164594032 0.0 0.0 0.0 18.99471164594032 0.0 0.0 0.0 18.99471164594032
20.28655968488411 0.0 0.0 0.0 20.28655968488411 0.0 0.0 0.0 20.28655968488411
20.286459141214525 0.0 0.0 0.0 20.286459141214525 0.0 0.0 0.0 20.286459141214525
20.342339725239448 0.0 0.0 0.0 20.342339725239448 0.0 0.0 0.0 20.342339725239448
20.257544369372877 0.0 0.0 0.0 20.257544369372877 0.0 0.0 0.0 20.257544369372877
20.124040897363404 0.0 0.0 0.0 20.124040897363404 0.0 0.0 0.0 20.124040897363404
20.22265571602613 0.0 0.0 0.0 20.22265571602613 0.0 0.0 0.0 20.22265571602613
20.110852213799607 0.0 0.0 0.0 20.110852213799607 0.0 0.0 0.0 20.110852213799607
20.06058672913252 0.0 0.0 0.0 20.06058672913252 0.0 0.0 0.0 20.06058672913252
20.074682422431437 0.0 0.0 0.0 20.074682422431437 0.0 0.0 0.0 20.074682422431437
20.019210363211357 0.0 0.0 0.0 20.019210363211357 0.0 0.0 0.0 20.019210363211357
20.01357938853727 0.0 0.0 0.0 20.01357938853727 0.0 0.0 0.0 20.01357938853727
20.053172427266283 0.0 0.0 0.0 20.053172427266283 0.0 0.0 0.0 20.053172427266283
20.209161168035905 0.0 0.0 0.0 20.209161168035905 0.0 0.0 0.0 20.209161168035905
20.13505095836041 0.0 0.0 0.0 20.13505095836041 0.0 0.0 0.0 20.13505095836041
20.06808622852931 0.0 0.0 0.0 20.06808622852931 0.0 0.0 0.0 20.06808622852931
20.06860058877583 0.0 0.0 0.0 20.06860058877583 0.0 0.0 0.0 20.06860058877583
20.079461950977286 0.0 0.0 0.0 20.079461950977286 0.0 0.0 0.0 20.079461950977286
20.069012817821136 0.0 0.0 0.0 20.069012817821136 0.0 0.0 0.0 20.069012817821136
20.00797646025522 0.0 0.0 0.0 20.00797646025522 0.0 0.0 0.0 20.00797646025522
20.00484637706781 0.0 0.0 0.0 20.00484637706781 0.0 0.0 0.0 20.00484637706781
20.043276284292862 0.0 0.0 0.0 20.043276284292862 0.0 0.0 0.0 20.043276284292862
19.85325404054519 0.0 0.0 0.0 19.85325404054519 0.0 0.0 0.0 19.85325404054519
19.848528488074592 0.0 0.0 0.0 19.848528488074592 0.0 0.0 0.0 19.848528488074592
19.889905912350173 0.0 0.0 0.0 19.889905912350173 0.0 0.0 0.0 19.889905912350173
20.08917976123149 0.0 0.0 0.0 20.08917976123149 0.0 0.0 0.0 20.08917976123149
20.083344524154978 0.0 0.0 0.0 20.083344524154978 0.0 0.0 0.0 20.083344524154978
20.055760103815132 0.0 0.0 0.0 20.055760103815132 0.0 0.0 0.0 20.055760103815132
20.007689117031084 0.0 0.0 0.0 20.007689117031084 0.0 0.0 0.0 20.007689117031084
19.96707582464437 0.0 0.0 0.0 19.96707582464437 0.0 0.0 0.0 19.96707582464437
19.956034013014865 0.0 0.0 0.0 19.956034013014865 0.0 0.0 0.0 19.956034013014865
19.873734256862885 0.0 0.0 0.0 19.873734256862885 0.0 0.0 0.0 19.873734256862885
19.89550831145501 0.0 0.0 0.0 19.89550831145501 0.0 0.0 0.0 19.89550831145501
19.926363576119687 0.0 0.0 0.0 19.926363576119687 0.0 0.0 0.0 19.926363576119687
19.978543094749387 0.0 0.0 0.0 19.978543094749387 0.0 0.0 0.0 19.978543094749387
19.957639536665006 0.0 0.0 0.0 19.957639536665006 0.0 0.0 0.0 19.957639536665006
19.919335573615545 0.0 0.0 0.0 19.919335573615545 0.0 0.0 0.0 19.919335573615545
19.806889121080875 0.0 0.0 0.0 19.806889121080875 0.0 0.0 0.0 19.806889121080875
19.92917191956442 0.0 0.0 0.0 19.92917191956442 0.0 0.0 0.0 19.92917191956442
19.913544258247324 0.0 0.0 0.0 19.913544258247324 0.0 0.0 0.0 19.913544258247324
19.848190343838453 0.0 0.0 0.0 19.848190343838453 0.0 0.0 0.0 19.848190343838453
19.81398379991327 0.0 0.0 0.0 19.81398379991327 0.0 0.0 0.0 19.81398379991327
19.712233606291054 0.0 0.0 0.0 19.712233606291054 0.0 0.0 0.0 19.712233606291054
19.717857172484226 0.0 0.0 0.0 19.717857172484226 0.0 0.0 0.0 19.717857172484226
19.760068580040173 0.0 0.0 0.0 19.760068580040173 0.0 0.0 0.0 19.760068580040173
19.78601572609737 0.0 0.0 0.0 19.78601572609737 0.0 0.0 0.0 19.78601572609737
19.689416543421267 0.0 0.0 0.0 19.689416543421267 0.0 0.0 0.0 19.689416543421267
19.720586668524916 0.0 0.0 0.0 19.720586668524916 0.0 0.0 0.0 19.720586668524916
19.746115235410304 0.0 0.0 0.0 19.746115235410304 0.0 0.0 0.0 19.746115235410304
19.808913753080038 0.0 0.0 0.0 19.808913753080038 0.0 0.0 0.0 19.808913753080038
19.778198720375574 0.0 0.0 0.0 19.778198720375574 0.0 0.0 0.0 19.778198720375574
19.873201375414073 0.0 0.0 0.0 19.873201375414073 0.0 0.0 0.0 19.873201375414073
20.45233291223619 0.0 0.0 0.0 20.45233291223619 0.0 0.0 0.0 20.45233291223619
20.416622975862076 0.0 0.0 0.0 20.416622975862076 0.0 0.0 0.0 20.416622975862076
20.627956244144567 0.0 0.0 0.0 20.627956244144567 0.0 0.0 0.0 20.627956244144567
20.384882926905032 0.0 0.0 0.0 20.384882926905032 0.0 0.0 0.0 20.384882926905032
20.476237963446355 0.0 0.0 0.0 20.476237963446355 0.0 0.0 0.0 20.476237963446355
20.43672271376697 0.0 0.0 0.0 20.43672271376697 0.0 0.0 0.0 20.43672271376697
20.51341795410527 0.0 0.0 0.0 20.51341795410527 0.0 0.0 0.0 20.51341795410527
20.496782210206263 0.0 0.0 0.0 20.496782210206263 0.0 0.0 0.0 20.496782210206263
20.418471921028065 0.0 0.0 0.0 20.418471921028065 0.0 0.0 0.0 20.418471921028065
20.438702894880628 0.0 0.0 0.0 20.438702894880628 0.0 0.0 0.0 20.438702894880628
20.335061421915757 0.0 0.0 0.0 20.335061421915757 0.0 0.0 0.0 20.335061421915757
20.309990593315586 0.0 0.0 0.0 20.309990593315586 0.0 0.0 0.0 20.309990593315586
20.34410347287489 0.0 0.0 0.0 20.34410347287489 0.0 0.0 0.0 20.34410347287489
20.399412016337585 0.0 0.0 0.0 20.399412016337585 0.0 0.0 0.0 20.399412016337585
20.455414840297642 0.0 0.0 0.0 20.455414840297642 0.0 0.0 0.0 20.455414840297642
20.43635916902483 0.0 0.0 0.0 20.43635916902483 0.0 0.0 0.0 20.43635916902483
20.27221263241123 0.0 0.0 0.0 20.27221263241123 0.0 0.0 0.0 20.27221263241123
20.26791888854265 0.0 0.0 0.0 20.26791888854265 0.0 0.0 0.0 20.26791888854265
20.085677666466605 0.0 0.0 0.0 20.085677666466605 0.0 0.0 0.0 20.085677666466605
20.152518039653742 0.0 0.0 0.0 20.152518039653742 0.0 0.0 0.0 20.152518039653742
20.351361138287462 0.0 0.0 0.0 20.351361138287462 0.0 0.0 0.0 20.351361138287462
20.33622667012855 0.0 0.0 0.0 20.33622667012855 0.0 0.0 0.0 20.33622667012855
20.171910267631066 0.0 0.0 0.0 20.171910267631066 0.0 0.0 0.0 20.171910267631066
20.281274262927074 0.0 0.0 0.0 20.281274262927074 0.0 0.0 0.0 20.281274262927074
20.204908699989577 0.0 0.0 0.0 20.204908699989577 0.0 0.0 0.0 20.204908699989577
20.158119380404166 0.0 0.0 0.0 20.158119380404166 0.0 0.0 0.0 20.158119380404166
20.21746290008056 0.0 0.0 0.0 20.21746290008056 0.0 0.0 0.0 20.21746290008056
20.116635062332495 0.0 0.0 0.0 20.116635062332495 0.0 0.0 0.0 20.116635062332495
20.170955631947194 0.0 0.0 0.0 20.170955631947194 0.0 0.0 0.0 20.170955631947194
20.174418038421454 0.0 0.0 0.0 20.174418038421454 0.0 0.0 0.0 20.174418038421454
20.13888114299447 0.0 0.0 0.0 20.13888114299447 0.0 0.0 0.0 20.13888114299447
20.059392905350478 0.0 0.0 0.0 20.059392905350478 0.0 0.0 0.0 20.059392905350478
20.018384846766327 0.0 0.0 0.0 20.018384846766327 0.0 0.0 0.0 20.018384846766327
20.001102448318708 0.0 0.0 0.0 20.001102448318708 0.0 0.0 0.0 20.001102448318708
20.02726549867692 0.0 0.0 0.0 20.02726549867692 0.0 0.0 0.0 20.02726549867692
20.083940377691583 0.0 0.0 0.0 20.083940377691583 0.0 0.0 0.0 20.083940377691583
20.08751761562005 0.0 0.0 0.0 20.08751761562005 0.0 0.0 0.0 20.08751761562005
20.14139103049369 0.0 0.0 0.0 20.14139103049369 0.0 0.0 0.0 20.14139103049369
20.15091145764918 0.0 0.0 0.0 20.15091145764918 0.0 0.0 0.0 20.15091145764918
20.126023724363108 0.0 0.0 0.0 20.126023724363108 0.0 0.0 0.0 20.126023724363108
20.162589340283127 0.0 0.0 0.0 20.162589340283127 0.0 0.0 0.0 20.162589340283127
20.17651569687537 0.0 0.0 0.0 20.17651569687537 0.0 0.0 0.0 20.17651569687537
20.10182339227068 0.0 0.0 0.0 20.10182339227068 0.0 0.0 0.0 20.10182339227068
19.967322950400668 0.0 0.0 0.0 19.967322950400668 0.0 0.0 0.0 19.967322950400668
20.001454351162266 0.0 0.0 0.0 20.001454351162266 0.0 0.0 0.0 20.001454351162266
20.128832596985045 0.0 0.0 0.0 20.128832596985045 0.0 0.0 0.0 20.128832596985045
20.079687380468044 0.0 0.0 0.0 20.079687380468044 0.0 0.0 0.0 20.079687380468044
20.124564782799673 0.0 0.0 0.0 20.124564782799673 0.0 0.0 0.0 20.124564782799673
20.111965602645984 0.0 0.0 0.0 20.111965602645984 0.0 0.0 0.0 20.111965602645984
20.092138391003395 0.0 0.0 0.0 20.092138391003395 0.0 0.0 0.0 20.092138391003395
20.08458015293648 0.0 0.0 0.0 20.08458015293648 0.0 0.0 0.0 20.08458015293648
22.443359512780347 0.0 0.0 0.0 22.443359512780347 0.0 0.0 0.0 22.443359512780347
22.56300806712071 0.0 0.0 0.0 22.56300806712071 0.0 0.0 0.0 22.56300806712071
22.687017041657903 0.0 0.0 0.0 22.687017041657903 0.0 0.0 0.0 22.687017041657903
22.81052276866995 0.0 0.0 0.0 22.81052276866995 0.0 0.0 0.0 22.81052276866995
23.652815718737912 0.0 0.0 0.0 23.652815718737912 0.0 0.0 0.0 23.652815718737912
24.17093365261407 0.0 0.0 0.0 24.17093365261407 0.0 0.0 0.0 24.17093365261407
24.362406371089843 0.0 0.0 0.0 24.362406371089843 0.0 0.0 0.0 24.362406371089843
24.568128244254947 0.0 0.0 0.0 24.568128244254947 0.0 0.0 0.0 24.568128244254947
24.781168638211582 0.0 0.0 0.0 24.781168638211582 0.0 0.0 0.0 24.781168638211582
25.00164661783163 0.0 0.0 0.0 25.00164661783163 0.0 0.0 0.0 25.00164661783163
25.231281479865018 0.0 0.0 0.0 25.231281479865018 0.0 0.0 0.0 25.231281479865018
25.462783279089486 0.0 0.0 0.0 25.462783279089486 0.0 0.0 0.0 25.462783279089486
25.694679844511384 0.0 0.0 0.0 25.694679844511384 0.0 0.0 0.0 25.694679844511384
25.93244868941438 0.0 0.0 0.0 25.93244868941438 0.0 0.0 0.0 25.93244868941438
20.56120530190564 0.0 0.0 0.0 20.56120530190564 0.0 0.0 0.0 20.56120530190564
20.604360232424078 0.0 0.0 0.0 20.604360232424078 0.0 0.0 0.0 20.604360232424078
20.474176818219817 0.0 0.0 0.0 20.474176818219817 0.0 0.0 0.0 20.474176818219817
20.296457415389156 0.0 0.0 0.0 20.296457415389156 0.0 0.0 0.0 20.296457415389156
20.571774558288084 0.0 0.0 0.0 20.571774558288084 0.0 0.0 0.0 20.571774558288084
20.55836679536003 0.0 0.0 0.0 20.55836679536003 0.0 0.0 0.0 20.55836679536003
20.47453507118987 0.0 0.0 0.0 20.47453507118987 0.0 0.0 0.0 20.47453507118987
20.646451516753732 0.0 0.0 0.0 20.646451516753732 0.0 0.0 0.0 20.646451516753732
20.65227458275445 0.0 0.0 0.0 20.65227458275445 0.0 0.0 0.0 20.65227458275445
20.514830857251578 0.0 0.0 0.0 20.514830857251578 0.0 0.0 0.0 20.514830857251578
20.56923768275124 0.0 0.0 0.0 20.56923768275124 0.0 0.0 0.0 20.56923768275124
20.686284272758126 0.0 0.0 0.0 20.686284272758126 0.0 0.0 0.0 20.686284272758126
20.72038445206443 0.0 0.0 0.0 20.72038445206443 0.0 0.0 0.0 20.72038445206443
20.59802862712613 0.0 0.0 0.0 20.59802862712613 0.0 0.0 0.0 20.59802862712613
20.594254006098943 0.0 0.0 0.0 20.594254006098943 0.0 0.0 0.0 20.594254006098943
20.62201517162638 0.0 0.0 0.0 20.62201517162638 0.0 0.0 0.0 20.62201517162638
20.64671769288953 0.0 0.0 0.0 20.64671769288953 0.0 0.0 0.0 20.64671769288953
20.546543918170997 0.0 0.0 0.0 20.546543918170997 0.0 0.0 0.0 20.546543918170997
20.37724795814291 0.0 0.0 0.0 20.37724795814291 0.0 0.0 0.0 20.37724795814291
20.671078894853295 0.0 0.0 0.0 20.671078894853295 0.0 0.0 0.0 20.671078894853295
20.516977200008657 0.0 0.0 0.0 20.516977200008657 0.0 0.0 0.0 20.516977200008657
20.547006948228304 0.0 0.0 0.0 20.547006948228304 0.0 0.0 0.0 20.547006948228304
20.55699569721319 0.0 0.0 0.0 20.55699569721319 0.0 0.0 0.0 20.55699569721319
20.520029494146446 0.0 0.0 0.0 20.520029494146446 0.0 0.0 0.0 20.520029494146446
20.661724100164022 0.0 0.0 0.0 20.661724100164022 0.0 0.0 0.0 20.661724100164022
20.525078373891343 0.0 0.0 0.0 20.525078373891343 0.0 0.0 0.0 20.525078373891343
20.577615087136685 0.0 0.0 0.0 20.577615087136685 0.0 0.0 0.0 20.577615087136685
20.442663257107945 0.0 0.0 0.0 20.442663257107945 0.0 0.0 0.0 20.442663257107945
20.65328372369078 0.0 0.0 0.0 20.65328372369078 0.0 0.0 0.0 20.65328372369078
20.705813028455204 0.0 0.0 0.0 20.705813028455204 0.0 0.0 0.0 20.705813028455204
20.659955589933702 0.0 0.0 0.0 20.659955589933702 0.0 0.0 0.0 20.659955589933702
20.64903231399887 0.0 0.0 0.0 20.64903231399887 0.0 0.0 0.0 20.64903231399887
20.733679500247103 0.0 0.0 0.0 20.733679500247103 0.0 0.0 0.0 20.733679500247103
20.545889325964264 0.0 0.0 0.0 20.545889325964264 0.0 0.0 0.0 20.545889325964264
20.593762400472382 0.0 0.0 0.0 20.593762400472382 0.0 0.0 0.0 20.593762400472382
20.505443782752597 0.0 0.0 0.0 20.505443782752597 0.0 0.0 0.0 20.505443782752597
20.49222652361955 0.0 0.0 0.0 20.49222652361955 0.0 0.0 0.0 20.49222652361955
20.57369176731395 0.0 0.0 0.0 20.57369176731395 0.0 0.0 0.0 20.57369176731395
20.552769688027276 0.0 0.0 0.0 20.552769688027276 0.0 0.0 0.0 20.552769688027276
20.492466240894935 0.0 0.0 0.0 20.492466240894935 0.0 0.0 0.0 20.492466240894935
20.498158070947984 0.0 0.0 0.0 20.498158070947984 0.0 0.0 0.0 20.498158070947984
20.654851675759133 0.0 0.0 0.0 20.654851675759133 0.0 0.0 0.0 20.654851675759133
20.416817713074753 0.0 0.0 0.0 20.416817713074753 0.0 0.0 0.0 20.416817713074753
20.45095758067168 0.0 0.0 0.0 20.45095758067168 0.0 0.0 0.0 20.45095758067168
20.398651588689184 0.0 0.0 0.0 20.398651588689184 0.0 0.0 0.0 20.398651588689184
20.408356169513176 0.0 0.0 0.0 20.408356169513176 0.0 0.0 0.0 20.408356169513176
20.33614888107892 0.0 0.0 0.0 20.33614888107892 0.0 0.0 0.0 20.33614888107892
20.307240988540983 0.0 0.0 0.0 20.307240988540983 0.0 0.0 0.0 20.307240988540983
20.309990593315586 0.0 0.0 0.0 20.309990593315586 0.0 0.0 0.0 20.309990593315586
20.44803916836761 0.0 0.0 0.0 20.44803916836761 0.0 0.0 0.0 20.44803916836761
20.24303962209191 0.0 0.0 0.0 20.24303962209191 0.0 0.0 0.0 20.24303962209191
