-134635.24426821593
-134635.26315046733
-134634.29247400945
-134633.32422140555
-134632.93086969512
-134635.46147043435
-134634.54950702703
-134629.78055513097
-134633.97263181163
-134634.63491131586
-134633.01197907515
-134634.03000728664
-134631.6249397361
-134632.8198694262
-134635.00435700922
-134633.58686568262
-134634.56848356585
-134635.0264322444
-134634.20915084725
-134633.37996093216
-134632.6795561022
-134612.94935800208
-134613.01040388457
-134612.76352112132
-134612.02149307835
-134613.1596841759
-134614.10775355215
-134612.32482680984
-134612.32439197192
-134610.5332724262
-134609.81341649088
-134611.3443414644
-134610.0435031635
-134611.5686541535
-134608.9549703925
-134611.05791702293
-134611.1605522403
-134611.53719262357
-134609.7853856362
-134610.41902257383
-134610.40322690972
-134610.86705651254
-134611.3518803783
-134612.48846015375
-134610.80573715564
-134610.20294228077
-134610.07512224733
-134608.0323657014
-134608.47755237695
-134607.8737339459
-134607.43182828295
-134610.07794148274
-134608.83629937057
-134609.7749276211
-134609.26678849742
-134611.4770056684
-134611.61046716594
-134611.9736262133
-134609.72963862648
-134610.1486774751
-134607.98848979393
-134609.4047293969
-134609.67133728415
-134609.03108974898
-134611.75495458016
-134608.62043799306
-134609.33032680664
-134609.00561118603
-134607.90047797427
-134609.43996378517
-134611.49013039912
-134613.11474239852
-134612.9387265144
-134615.06447832537
-134613.5002124677
-134613.2673721391
-134611.9247752485
-134611.05465138474
-134615.28361051116
-134613.47698224537
-134614.604565257
-134614.9520931331
-134612.6145077737
-134612.11507942213
-134611.67648456828
-134612.64664754734
-134611.6064166154
-134612.2616802085
-134612.54255896996
-134611.02165513276
-134610.67203048352
-134611.12382435522
-134611.56352766484
-134611.25975338105
-134611.75725312575
-134612.6071997484
-134611.29494804068
-134612.46298240716
-134610.91945203216
-134611.79891021698
-134610.6878736315
-134611.90148516113
-134611.19497504906
-134611.67851440143
-134612.90025179452
-134612.16096257733
-134613.14846424203
-134614.3585656392
-134611.96128326564
-134610.7907039545
-134610.85297108392
-134608.06682837484
-134610.04008650215
-134610.63868551768
-134610.19567847395
-134610.7899553693
-134607.45476203726
-134607.74477008195
-134607.64667549214
-134609.43478858814
-134610.2674106751
-134607.22505714037
-134607.29525529972
-134613.50220406888
-134613.19322438343
-134614.1745809013
-134613.88549300955
-134613.78493565347
-134612.23766969974
-134613.0857117976
-134612.86985586243
-134612.96207388176
-134612.00446433038
-134612.98730250815
-134611.15018701603
-134611.02751836966
-134611.04026023622
-134611.9246370147
-134611.34976673406
-134611.09832538373
-134612.5924771652
-134611.87344831994
-134612.8679249426
-134613.46314947444
-134612.8698149093
-134610.34377316528
-134614.2066861165
-134612.70780962246
-134614.35312581147
-134612.36076243548
-134614.46177420046
-134610.92138186353
-134613.18566519706
-134610.4429607003
-134612.3378908592
-134611.91254890163
-134610.28272660248
-134611.3604038001
-134611.6310883608
-134610.68814438477
-134611.72141151543
-134612.34652571156
-134612.31851961924
-134610.67335200438
-134610.0974833381
-134608.67656256075
-134610.23564723486
-134610.45537888745
-134610.39971460035
-134614.27981208471
-134613.26432187902
-134614.42446970614
-134611.89257683433
-134613.49070521834
-134598.66076414572
-134598.16685739212
-134596.89806253658
-134594.28897532256
-134590.51357894382
-134586.92898620368
-134585.29003570974
-134583.52708225927
-134582.48135666864
-134581.6835206624
-134581.795067608
-134579.96930239224
-134580.34445213593
-134580.9044020066
-134612.926267102
-134612.89891435503
-134613.66082385136
-134614.84306718616
-134613.84776401767
-134613.10253646018
-134612.25324998572
-134613.6376831545
-134611.91924480686
-134611.88349313015
-134612.7756685552
-134610.0038871982
-134613.58271751963
-134613.50801764498
-134615.6982326801
-134612.40256211435
-134612.8778953297
-134612.21792648014
-134613.86461521138
-134610.15959359385
-134611.5215156011
-134611.3433394052
-134612.91874451496
-134612.3159571232
-134610.32267019287
-134611.19658011253
-134610.58150460408
-134615.7003299975
-134612.24012035696
-134611.99488619537
-134612.1490471205
-134611.6338839223
-134610.25169800568
-134612.2861104529
-134614.7991810744
-134615.17393230737
-134613.765567951
-134611.66763379355
-134611.59851334104
-134611.23397086695
-134610.55541460135
-134608.12672906625
-134613.29650274187
-134613.67242039077
-134610.8658502319
-134613.8256282372
-134613.043872118
-134613.89007159704
-134611.2854987516
-134613.24028715212
-134610.76161566543
