0.002402818478976965 0.0004728511718277176 0.0006812729504779932 0.0004728511718277176 0.0009392752403490391 -3.672630460797807e-06 0.0006812729504779932 -3.672630460797807e-06 0.0024744347729625223
0.0012000320030656833 -0.0013689730042623824 -0.000380117252692573 -0.0013689730042623824 -0.0004214343453765483 -5.5089456911967096e-06 -0.000380117252692573 -5.5089456911967096e-06 0.004005003517500008
0.0005600761452716655 -0.0008226692232187088 0.0006151656021836327 -0.0008226692232187088 0.0033310758279436106 -0.0008511321092898917 0.0006151656021836327 -0.0008511321092898917 0.0021879695970202936
0.0010641446760161646 3.305367414718026e-05 -0.0006427103306396162 3.305367414718026e-05 0.0030749098533029637 -1.2854206612792324e-05 -0.0006427103306396162 -1.2854206612792324e-05 0.0008694952615938809
0.0021650156566403074 -0.0005380403625068787 -0.0001689410011966991 -0.0005380403625068787 0.006471174871925736 0.0006528100644068102 -0.0001689410011966991 0.0006528100644068102 0.005998323700098018
0.001898749948232466 -0.00036450857323418233 0.0006197563902596299 -0.00036450857323418233 0.0005233498406636874 -0.00044806091621733243 0.0006197563902596299 -0.00044806091621733243 0.0014828245485471144
0.0013249014387328088 -0.0019262946766884495 -0.0006059840260316382 -0.0019262946766884495 0.003174989033359704 0.0005665032485780617 -0.0006059840260316382 0.0005665032485780617 0.005348268108536806
0.00030482832824621796 0.0005389585201220781 0.0005646669333476628 0.0005389585201220781 0.00236150138629299 0.0003791990950773736 0.0005646669333476628 0.0003791990950773736 0.0012872569765096313
-0.001128415709080126 -0.0006959634723211844 -0.0013258195963480083 -0.0006959634723211844 0.0032860861047988377 -4.2235250299174776e-05 -0.0013258195963480083 -4.2235250299174776e-05 0.0022366319506258643
0.004402565764881371 0.00019464941442228376 -2.570841322558465e-05 0.00019464941442228376 0.0026452120893896204 0.0009585565502682275 -2.570841322558465e-05 0.0009585565502682275 0.0039049243374432684
0.0036928299283321944 0.0004049075083029582 -0.0005334495744308814 0.0004049075083029582 0.0033182216213308185 -0.0006537282220220096 -0.0005334495744308814 -0.0006537282220220096 0.003605604954888247
0.001166978328918503 0.0005674214061932611 -0.000998037327721804 0.0005674214061932611 0.004238215551760669 0.00027085649648383824 -0.000998037327721804 0.00027085649648383824 0.00262868525231603
0.00016985915881189857 -0.0009475386588858341 -0.000626183493566026 -0.0009475386588858341 0.0038140267335385223 0.0002745291269446361 -0.000626183493566026 0.0002745291269446361 0.0018877320568500726
0.0026626570840784097 0.002358746913447391 0.00024973887133425085 0.002358746913447391 0.001579231098143057 0.0007078995213187773 0.00024973887133425085 0.0007078995213187773 0.0016132029299054365
0.004022448512188798 9.732470721114188e-05 0.0005196772102028897 9.732470721114188e-05 0.0015994305656774448 0.000493968796977305 0.0005196772102028897 0.000493968796977305 0.002265094836697047
0.003994903783732815 0.0011091343991609377 0.0005343677320460809 0.0011091343991609377 0.0035257252423658942 -0.00015608679458390678 0.0005343677320460809 -0.00015608679458390678 0.005220644200024082
0.0027719178402871446 0.0001689410011966991 -0.0008318507993707032 0.0001689410011966991 0.002724173644296773 -0.001008137061488998 -0.0008318507993707032 -0.001008137061488998 0.0021861332817898946
0.0030198203963909963 -0.0008079787013755176 -0.0014093719393311584 -0.0008079787013755176 0.0005362040472764798 0.0011229067633889294 -0.0014093719393311584 0.0011229067633889294 0.0014920061246991088
0.0012973567102768254 -0.0005867027161124496 0.0011229067633889294 -0.0005867027161124496 0.002166851971870706 -0.00046550591090612197 0.0011229067633889294 -0.00046550591090612197 0.004216179768995882
0.0021310438248779272 0.00028003807263583276 0.0005784392975756546 0.00028003807263583276 -0.0004710148565973187 0.001302865655968022 0.0005784392975756546 0.001302865655968022 -0.0010338454747145826
0.004477854689327726 0.0001349691694343194 0.0013001111831224235 0.0001349691694343194 0.004067438235333571 0.0009016307781258615 0.0013001111831224235 0.0009016307781258615 0.0030804187989941605
-0.005310623646313629 -0.001339591960576 0.0005150864221268924 -0.001339591960576 -0.0032043700770460867 0.003004211716932606 0.0005150864221268924 0.003004211716932606 -0.005447429130978347
-0.0031226540492933354 0.0003608359427733845 -0.001126579393849727 0.0003608359427733845 -0.0017527628874157532 0.0006546463796372091 -0.001126579393849727 0.0006546463796372091 -0.0011375972852321206
-0.0036414131018810258 0.002265094836697047 -9.732470721114188e-05 0.002265094836697047 -0.004550389140928483 0.00038746251361416865 -9.732470721114188e-05 0.00038746251361416865 -0.0037662825375481507
-0.004573343081308469 -0.0003057464858614174 0.0009475386588858341 -0.0003057464858614174 -0.004358494199351797 0.0009300936641970445 0.0009475386588858341 0.0009300936641970445 -0.00492224297508426
-0.003812190418308124 0.0009567202350378287 -0.002230204847319468 0.0009567202350378287 -0.0066199164055880475 -0.0019703662422180233 -0.002230204847319468 -0.0019703662422180233 -0.004992022953839419
-0.001498433228005505 -0.0009245847185058479 -0.00014690521843191228 -0.0009245847185058479 -0.0037497557004745607 0.00020474914818947773 -0.00014690521843191228 0.00020474914818947773 -0.000817160277527512
-0.003520216296674698 -0.0005371222048916793 -0.0007978789676083235 -0.0005371222048916793 -0.006000160015328417 0.0025570689583304727 -0.0007978789676083235 0.0025570689583304727 -0.0029748306732462234
-0.00658043562813447 7.437076683115559e-05 -0.0017757168277957396 7.437076683115559e-05 -0.0017472539417245565 -0.00039848040499656205 -0.0017757168277957396 -0.00039848040499656205 -0.003000539086471808
-0.0006537282220220096 -0.0007446258259267553 1.8363152303989035e-06 -0.0007446258259267553 -0.003788318320312938 0.000892449201973867 1.8363152303989035e-06 0.000892449201973867 -0.0029399406838686447
-0.001882223111158876 -0.0004838690632101111 0.001349691694343194 -0.0004838690632101111 -0.0002019946753438794 -0.0026112402576272406 0.001349691694343194 -0.0026112402576272406 -0.00045816064998452637
0.0006243471783356271 0.001662783441126207 -0.00044806091621733243 0.001662783441126207 -0.0016233026636726306 -0.0005527308843500699 -0.00044806091621733243 -0.0005527308843500699 -0.0027792631012087403
-0.0025561508007152737 0.001343264591036798 -0.0009888557515698095 0.001343264591036798 -0.006382113583251389 0.00019648572965268266 -0.0009888557515698095 0.00019648572965268266 -0.007600508738621062
0.001872123377391682 -0.0011072980839305388 -0.00182529733901651 -0.0011072980839305388 2.570841322558465e-05 0.0008382779026770994 -0.00182529733901651 0.0008382779026770994 -0.002195314857941889
0.0016967552728885866 0.0005968024498796435 0.0010889349316265497 0.0005968024498796435 0.0004994777426685017 0.0003342093719326004 0.0010889349316265497 0.0003342093719326004 -0.0011293338666953257
-0.00017995889257909253 0.0020860541017331544 0.0019106859972300588 0.0020860541017331544 -0.00204290069381878 0.0026902018125343936 0.0019106859972300588 0.0026902018125343936 -0.0029399406838686447
-0.00175827183310695 -0.0011532059646905113 0.000674845847171597 -0.0011532059646905113 -0.0034201371166179572 0.0009346844522730419 0.000674845847171597 0.0009346844522730419 -0.0015654587339150653
-0.004163844784929514 -0.001500269543235904 6.335287544876216e-05 -0.001500269543235904 -0.0024101637398985607 0.00028003807263583276 6.335287544876216e-05 0.00028003807263583276 -0.002912395955412661
-0.0021888877546354926 0.00018454968065508977 -0.0011550422799209102 0.00018454968065508977 -0.0023183479783786157 0.0007583981901547472 -0.0011550422799209102 0.0007583981901547472 -0.003455945263610736
-0.003103372739374147 5.049866883596985e-05 -0.0019979109706740068 5.049866883596985e-05 -0.004243724497451866 0.0005068230035900973 -0.0019979109706740068 0.0005068230035900973 -0.0033604568716299934
-0.008186293297118312 -0.001930885464764447 -0.0020282101719755886 -0.001930885464764447 -0.003174070875744505 -0.0003525725242365894 -0.0020282101719755886 -0.0003525725242365894 -0.002778344943593541
-0.004190471355770297 -0.0004884598512861083 -0.0008933673595890665 -0.0004884598512861083 0.0007942063371475257 0.000986101278724211 -0.0008933673595890665 0.000986101278724211 -0.003238341908808466
-0.0006023113955708403 -0.001378154580414377 -0.0009842649634938122 -0.001378154580414377 -0.0017371542079573626 0.00038562619838376967 -0.0009842649634938122 0.00038562619838376967 0.0008290963265251049
-0.0036717123031826076 -0.0011752417474552982 0.00045356986190852916 -0.0011752417474552982 -0.003532152345672291 0.0008419505331378973 0.00045356986190852916 0.0008419505331378973 -0.00043612486721973957
-0.003843407777224905 0.0030400198639253845 0.00011844233236072926 0.0030400198639253845 -0.0030290019725429914 0.001170650959379301 0.00011844233236072926 0.001170650959379301 -0.0013120472321200166
-0.0038828885546784817 0.001242267253364858 0.0019272128343036491 0.001242267253364858 -0.0011651420136881043 -0.00028738333355742836 0.0019272128343036491 -0.00028738333355742836 0.00043796118245013844
0.0007060632060883783 0.0013460190638823963 -0.0003663448884645812 0.0013460190638823963 -0.0022623403638514492 0.00042418881822214665 -0.0003663448884645812 0.00042418881822214665 -0.0016609471258958082
-0.0036404949442658263 0.00025892044748624537 0.0015645405762998656 0.00025892044748624537 -0.0031373445711365263 -0.00025524781702544757 0.0015645405762998656 -0.00025524781702544757 -0.0012165588401392734
0.00098793759395461 -0.0012110498944480769 0.0006142474445684332 -0.0012110498944480769 0.001292765922200828 0.00041041645399415497 0.0006142474445684332 0.00041041645399415497 -0.00012027864759112817
-0.0005720121942692583 -0.0013542824824191912 -0.0006555645372524085 -0.0013542824824191912 -0.0017940799800997284 -0.0006234290207204278 -0.0006555645372524085 -0.0006234290207204278 -0.0017013460609645841
-0.0027003015463015877 -0.0007987971252235229 -0.0006574008524828074 -0.0007987971252235229 1.1017891382393419e-05 0.0001726136316574969 -0.0006574008524828074 0.0001726136316574969 -0.0007850247609955312
-0.002684692866843197 0.0002616749203318437 -0.00038562619838376967 0.0002616749203318437 -0.0007381987226203591 0.00033237305670220154 -0.00038562619838376967 0.00033237305670220154 -0.0011458607037689158
-0.0017270544741901687 -0.0014773156028559178 -0.00013037838135832215 -0.0014773156028559178 2.1117625149587388e-05 -0.0005912935041884469 -0.00013037838135832215 -0.0005912935041884469 0.00044806091621733243
-0.0029050506944910655 -0.002389964272364173 0.0006987179451667827 -0.002389964272364173 -0.002652557350311216 -0.0005655850909628623 0.0006987179451667827 -0.0005655850909628623 -0.003664367042261012
-0.0010678173064769623 -0.001626057136518229 0.0020171922805931955 -0.001626057136518229 -0.0035248070847506948 -1.1936048997592873e-05 0.0020171922805931955 -1.1936048997592873e-05 -0.0005472219386588731
-0.001930885464764447 0.00025341150179504865 -0.0005472219386588731 0.00025341150179504865 -0.0028674062322678875 -0.00041684355730055105 -0.0005472219386588731 -0.00041684355730055105 -0.0012845025036640329
-0.0024193453160505553 0.0005968024498796435 0.000855722897365889 0.0005968024498796435 -0.0025230971265680934 -0.0012330856772128636 0.000855722897365889 -0.0012330856772128636 -0.0006886182113995888
0.000863986315902684 -0.001063226518400965 0.0005334495744308814 -0.001063226518400965 -0.007786894734506549 0.0008740860496698781 0.0005334495744308814 0.0008740860496698781 -0.004211588980919885
-0.00380117252692573 5.7843929757565454e-05 -0.0005059048459748978 5.7843929757565454e-05 0.001193604899759287 -0.000855722897365889 -0.0005059048459748978 -0.000855722897365889 -0.0008116513318363153
-0.0009888557515698095 -0.0028582246561158933 0.000863986315902684 -0.0028582246561158933 -0.002464335039195328 -0.0010815896707049542 0.000863986315902684 -0.0010815896707049542 -0.001654520022589412
-0.0032741500558012447 -0.0016471747616678164 -0.0014112082545615573 -0.0016471747616678164 -0.0037157838687121806 0.0005802756128060534 -0.0014112082545615573 0.0005802756128060534 -0.003067564592381368
-0.002758145476059153 0.0020300464872059876 -0.00017904073496389307 0.0020300464872059876 -0.0031437716744429226 -0.0013249014387328088 -0.00017904073496389307 -0.0013249014387328088 -0.00018730415350068813
0.0029959482983958107 0.0001762862621182947 0.00022678493095426458 0.0001762862621182947 -0.005377649152223189 -0.0014571161353215296 0.00022678493095426458 -0.0014571161353215296 -0.0047771740718827475
-0.0025680868497128667 -0.00024790255610385197 -0.0013946814174879672 -0.00024790255610385197 -0.0028086441448951223 0.002803135199203926 -0.0013946814174879672 0.002803135199203926 0.002142061716260321
-0.001727972631805368 -0.0003388001600085977 -0.0004774419599037149 -0.0003388001600085977 -0.002538705806026484 1.5608679458390678e-05 -0.0004774419599037149 1.5608679458390678e-05 -0.0014681340267039234
-0.003278740843877242 0.0011330064971561233 -6.427103306396161e-05 0.0011330064971561233 -0.004160172154468716 -0.00043796118245013844 -6.427103306396161e-05 -0.00043796118245013844 -0.0009916102244154079
-0.003325566882252414 0.000648219276330813 -0.0011779962203008966 0.000648219276330813 -0.0020768725255811598 0.0016866555391213927 -0.0011779962203008966 0.0016866555391213927 -0.0020419825362035806
-0.001215640682524074 -0.0003378820023933982 -0.0009457023436554353 -0.0003378820023933982 -0.0013047019711984209 -0.0004636695956757231 -0.0009457023436554353 -0.0004636695956757231 -0.0026718386602304044
-0.0019565938779900318 0.00046734222613652095 0.00011568785951513091 0.00046734222613652095 -0.004440210227104548 -0.0008961218324346649 0.00011568785951513091 -0.0008961218324346649 -0.0029426951567142427
-0.0011844233236072926 -0.000684945580938791 0.0009668199688050227 -0.000684945580938791 -0.0016572744954350105 0.0025350331755656865 0.0009668199688050227 0.0025350331755656865 -0.0029876848798590155
-0.001900586263462865 0.0013001111831224235 -0.0021530796076427144 0.0013001111831224235 -0.0012652211937448444 0.0010209912681017903 -0.0021530796076427144 0.0010209912681017903 0.0012018683182960822
-0.004522844412472499 -0.001402026678409563 -6.427103306396162e-06 -0.001402026678409563 -0.002097071993115548 0.0010769988826289567 -6.427103306396162e-06 0.0010769988826289567 -0.0023367111306826045
0.0032438508544996632 0.00038746251361416865 -0.0007308534616987636 0.00038746251361416865 0.001132088339540924 -0.0010678173064769623 -0.0007308534616987636 -0.0010678173064769623 0.0022127598526306786
0.0014001903631791638 0.0011210704481585305 0.0014378348254023413 0.0011210704481585305 0.002096153835500348 -0.0008566410549810885 0.0014378348254023413 -0.0008566410549810885 0.0023045756141506237
0.0017977526105605263 -0.00175827183310695 -1.5608679458390678e-05 -0.00175827183310695 0.004870826148633091 -0.0009787560178026154 -1.5608679458390678e-05 -0.0009787560178026154 0.002709483122453582
0.0022100053797850802 6.427103306396162e-06 3.764446222317752e-05 6.427103306396162e-06 0.0015581134729934693 0.0016196300332118327 3.764446222317752e-05 0.0016196300332118327 0.00272968258998797
-3.397183176237971e-05 0.0004976414274381028 -0.0003020738554006196 0.0004976414274381028 0.0007170810974707717 0.0006335287544876216 -0.0003020738554006196 0.0006335287544876216 -0.001170650959379301
0.0002543296594102481 0.0017288907894205676 0.0008226692232187088 0.0017288907894205676 0.0017959162953301274 0.001006300746258599 0.0008226692232187088 0.001006300746258599 0.0029766669884766224
0.001414880885022355 -0.00015149600650790954 0.0001652683707359013 -0.00015149600650790954 0.0008254236960643071 -0.00043520670960454016 0.0001652683707359013 -0.00043520670960454016 -0.0017803076158717367
-9.732470721114188e-05 0.0004278614486829445 0.0013910087870271693 0.0004278614486829445 8.5388658213549e-05 -0.0010512904694033722 0.0013910087870271693 -0.0010512904694033722 -0.0007372805650051596
0.0020373917481275833 -0.0011642238560729049 -0.0018877320568500726 -0.0011642238560729049 0.0011394336004625196 -0.0007097358365491763 -0.0018877320568500726 -0.0007097358365491763 -0.0008162421199123125
-0.0010650628336313641 0.0006454648034852146 -1.4690521843191228e-05 0.0006454648034852146 -0.0002203578276478684 0.00078686107622593 -1.4690521843191228e-05 0.00078686107622593 -0.0010053825886433996
0.0038039269997713287 -0.0010650628336313641 0.0007363624073899603 -0.0010650628336313641 0.0002056673058046772 -0.00018454968065508977 0.0007363624073899603 -0.00018454968065508977 0.0007932881795323262
0.001455279820091131 -0.0015617861034542674 0.0002754472845598355 -0.0015617861034542674 -0.0012881751341248307 -0.0002717746540990377 0.0002754472845598355 -0.0002717746540990377 0.0009108123542778561
0.003261295849188452 -0.0011926867421440876 0.00010926075620873476 -0.0011926867421440876 0.0008245055384491077 -0.0005591579876564661 0.00010926075620873476 -0.0005591579876564661 0.004548552825698084
0.00022494861572386565 -0.0008401142179074983 -0.0014561979777063304 -0.0008401142179074983 -0.0002736109693294366 -0.0007051450484731788 -0.0014561979777063304 -0.0007051450484731788 0.0017913255072541303
0.001991483867367611 -0.0009310118218122439 -0.0006922908418603866 -0.0009310118218122439 0.0002901378064030267 0.0008346052722163016 -0.0006922908418603866 0.0008346052722163016 0.0002791199150206333
0.0007280989888531652 -0.001453443504860732 0.00045081538906293077 -0.001453443504860732 0.003208042707506884 0.0007565618749243482 0.00045081538906293077 0.0007565618749243482 0.004432864966182953
0.0023385474459130034 -0.00149016980946871 -0.0010870986163961508 -0.00149016980946871 0.005131582911349736 -0.0013533643248039918 -0.0010870986163961508 -0.0013533643248039918 0.0009447841860402358
0.004094982963789555 0.0004884598512861083 0.00014782337604711171 0.0004884598512861083 0.0011082162415457382 -0.0002901378064030267 0.00014782337604711171 -0.0002901378064030267 0.0023137571903026183
-0.00013955995751031665 0.002016274122977996 0.00016802284358149967 0.002016274122977996 0.00023137571903026182 -0.0016985915881189855 0.00016802284358149967 -0.0016985915881189855 -0.0006601553253284058
0.0030198203963909963 -0.001229413046752066 0.0005261043135092858 -0.001229413046752066 -0.000912648669508255 -0.0004076619811485565 0.0005261043135092858 -0.0004076619811485565 0.0028068078296647238
0.0034100373828507636 0.0007464621411571543 -0.0005288587863548842 0.0007464621411571543 0.004459491537023737 -0.00024239361041265527 -0.0005288587863548842 -0.00024239361041265527 0.0020328009600515864
0.00014690521843191228 -0.000808896858990717 -0.002069527264659564 -0.000808896858990717 0.0014231443035591501 0.001311129074504817 -0.002069527264659564 0.001311129074504817 0.0037681188527785496
-0.0006023113955708403 6.335287544876216e-05 -0.0009989554853370034 6.335287544876216e-05 0.001977711503139619 -0.0011302520243105252 -0.0009989554853370034 -0.0011302520243105252 0.001717872898038174
0.003977458789044024 -0.0009622291807290254 0.0015847400438342538 -0.0009622291807290254 0.003287922420029236 -0.00029564675209422343 0.0015847400438342538 -0.00029564675209422343 0.00028738333355742836
0.0034963441986795123 -0.0009356026098882414 9.548839198074298e-05 -0.0009356026098882414 0.004396138661574975 8.722497344394792e-05 9.548839198074298e-05 8.722497344394792e-05 0.004442964699950147
0.002490961610036112 -0.0008235873808339082 -0.0015461774239958767 -0.0008235873808339082 0.004084883230022361 -6.518919067916107e-05 -0.0015461774239958767 -6.518919067916107e-05 0.0017775531430261385
0.001009973376719397 -0.0017105276371165786 0.0005049866883596985 -0.0017105276371165786 0.0009649836535746237 -2.2035782764786838e-05 0.0005049866883596985 -2.2035782764786838e-05 2.1117625149587388e-05
0.0015526045273022728 -0.0011743235898400988 -0.0006252653359508266 -0.0011743235898400988 0.0016747194901238001 0.00020015836011348046 -0.0006252653359508266 0.00020015836011348046 0.002240304581086662
0.0022145961678610776 -0.0013249014387328088 -0.001547095581611076 -0.0013249014387328088 -0.0003176825348590103 0.0012808298732032352 -0.001547095581611076 0.0012808298732032352 0.003567960492665069
0.0017619444635677479 -0.0008529684245202907 -0.0007308534616987636 -0.0008529684245202907 0.0045953788640732554 0.00021209440911107333 -0.0007308534616987636 0.00021209440911107333 0.0009374389251186402
0.0015498500544566746 -0.0010880167740113503 0.00020842177865027553 -0.0010880167740113503 0.004125282165091136 0.0021760335480227005 0.00020842177865027553 0.0021760335480227005 0.0007005542603971816
-0.000684945580938791 0.0009622291807290254 -0.000571094036654059 0.0009622291807290254 -0.00026351123556224264 0.00030850095870701576 -0.000571094036654059 0.00030850095870701576 0.002697547073455989
0.0008226692232187088 0.0007446258259267553 0.0003957259321509637 0.0007446258259267553 0.0009034670933562606 0.00018546783827028926 0.0003957259321509637 0.00018546783827028926 0.00035624515469738727
-0.0011045436110849404 0.0014672158690887237 0.0010421088932513777 0.0014672158690887237 0.0014773156028559178 0.0013790727380295765 0.0010421088932513777 0.0013790727380295765 0.00222745037447387
0.0020768725255811598 -0.0013506098519583934 0.0016765558053541988 -0.0013506098519583934 0.006812729504779931 -0.0012027864759112817 0.0016765558053541988 -0.0012027864759112817 0.005003040845221812
0.003052874070538177 0.00014415074558631391 0.0006225108631052283 0.00014415074558631391 0.0011798325355312955 0.00023045756141506238 0.0006225108631052283 0.00023045756141506238 0.002903214379260666
0.00427035106829265 0.0004866235360557094 0.0015287324293070872 0.0004866235360557094 0.0020594275308923704 -0.0004866235360557094 0.0015287324293070872 -0.0004866235360557094 -0.002567168692097667
0.002758145476059153 0.0006353650697180206 0.0001918949415766854 0.0006353650697180206 0.002406491109437763 -0.0009668199688050227 0.0001918949415766854 -0.0009668199688050227 -0.0003865443559989692
4.958051122077039e-05 -0.0007069813637035779 0.0018877320568500726 -0.0007069813637035779 0.00037001751892537906 0.0005196772102028897 0.0018877320568500726 0.0005196772102028897 0.0055741348818758715
0.00112198860577373 0.0008346052722163016 -0.00028738333355742836 0.0008346052722163016 -0.0012597122480536478 0.0010191549528713914 -0.00028738333355742836 0.0010191549528713914 -0.00037552646461657573
0.0048065551155691295 0.00015149600650790954 -0.0004269432910677451 0.00015149600650790954 0.0005123319492812941 0.00020658546341987663 -0.0004269432910677451 0.00020658546341987663 0.001079753355474555
0.0024973887133425085 0.000998037327721804 -0.0017353178927269636 0.000998037327721804 -0.0010255820561777876 -0.0002644293931774421 -0.0017353178927269636 -0.0002644293931774421 -0.000607820341262037
-0.0006638279557892036 0.0003213551653198081 -0.0018914046873108705 0.0003213551653198081 -0.0016269752941334285 0.0011541241223057108 -0.0018914046873108705 0.0011541241223057108 0.003703847819714588
0.0021576703957187113 9.181576151994517e-07 -0.000998037327721804 9.181576151994517e-07 0.0019611846660660287 0.0005472219386588731 -0.000998037327721804 0.0005472219386588731 0.0007271808312379657
0.0022944758803834296 0.0005297769439700837 -0.000646382961100414 0.0005297769439700837 0.002209087222169881 0.0007271808312379657 -0.000646382961100414 0.0007271808312379657 0.0020208649110539934
0.0002855470183270295 -0.0009025489357410611 -0.0004884598512861083 -0.0009025489357410611 0.0011008709806241425 -0.00029748306732462236 -0.0004884598512861083 -0.00029748306732462236 -0.0006601553253284058
0.0009053034085866594 -0.000817160277527512 -0.0008125694894515148 -0.000817160277527512 0.0028508793951942976 0.0007841066033803317 -0.0008125694894515148 0.0007841066033803317 -0.0003158462196286114
0.0018106068171733188 -0.0002616749203318437 -0.0008052242285299192 -0.0002616749203318437 0.000550894569119671 5.876208737276491e-05 -0.0008052242285299192 5.876208737276491e-05 -0.0003608359427733845
0.0004159253996853516 -0.0024725984577321234 -0.0005481400962740726 -0.0024725984577321234 0.0005334495744308814 -0.0009062215662018589 -0.0005481400962740726 -0.0009062215662018589 -0.0003351275295477999
-0.00012486943566712542 0.0014883334942383112 0.0011844233236072926 0.0014883334942383112 0.004046320610183984 0.0012661393513600438 0.0011844233236072926 0.0012661393513600438 -0.00045816064998452637
0.002739782323755164 0.0010393544204057793 -0.0006693369014804003 0.0010393544204057793 0.0006821911080931926 9.916102244154078e-05 -0.0006693369014804003 9.916102244154078e-05 0.00036450857323418233
0.005144437117962528 0.00017904073496389307 -0.0009365207675034408 0.00017904073496389307 0.0005352858896612803 -0.0010825078283201537 -0.0009365207675034408 -0.0010825078283201537 0.0032695592677252474
0.003849834880531301 -0.0003424727904693955 0.0004003167202269609 -0.0003424727904693955 0.0026433757741592214 0.0012431854109800577 0.0004003167202269609 0.0012431854109800577 0.005123319492812941
0.003185088767126898 0.0007446258259267553 -0.0003103372739374147 0.0007446258259267553 0.003422891589463556 0.0005077411612052969 -0.0003103372739374147 0.0005077411612052969 0.002353237967756195
0.0013946814174879672 -9.732470721114188e-05 -0.001126579393849727 -9.732470721114188e-05 0.001341428275806399 0.0005233498406636874 -0.001126579393849727 0.0005233498406636874 0.0013184743354264126
0.0033540297683235967 0.0014864971790079123 -0.0004710148565973187 0.0014864971790079123 0.0040766198114855655 0.001103625453469741 -0.0004710148565973187 0.001103625453469741 0.005750421143994166
-0.001036599947560181 2.9381043686382456e-05 0.00023872097995185744 2.9381043686382456e-05 0.002871997020343885 -0.00028003807263583276 0.00023872097995185744 -0.00028003807263583276 0.0019079315243844606
0.003526643399981094 -0.0005114137916660946 0.0001615957402751035 -0.0005114137916660946 0.0030143114506998 -0.0011954412149896862 0.0001615957402751035 -0.0011954412149896862 0.0032319148055020702
0.004699130674590794 0.0006794366352475943 0.0005114137916660946 0.0006794366352475943 0.0009255028761210473 0.0003406364752389966 0.0005114137916660946 0.0003406364752389966 0.006035050004705995
0.0017123639523469773 0.0003479817361605922 -0.0005665032485780617 0.0003479817361605922 0.0012973567102768254 -0.0004150072420701522 -0.0005665032485780617 -0.0004150072420701522 0.0013937632598727677
0.00043612486721973957 0.0007161629398555723 -0.00012211496282152709 0.0007161629398555723 0.002305493771765823 0.001301029340737623 -0.00012211496282152709 0.001301029340737623 -0.0005472219386588731
0.002376191908136181 -0.0024257724193569516 0.0008593955278266868 -0.0024257724193569516 0.0006711732167107992 0.0012615485632840467 0.0008593955278266868 0.0012615485632840467 0.0031538714082101167
9.181576151994517e-05 -0.0016104484570598383 0.0001009973376719397 -0.0016104484570598383 -0.00022127598526306785 -0.0008612318430570857 0.0001009973376719397 -0.0008612318430570857 0.00032227332293500755
0.0023945550604401703 -0.00047927827513411376 -5.2334984066368754e-05 -0.00047927827513411376 0.0026296034099312295 -0.000571094036654059 -5.2334984066368754e-05 -0.000571094036654059 0.0008768405225154763
0.0002965649097094229 -0.00033604568716299934 -0.0005022322155141001 -0.00033604568716299934 0.0011467788613841153 0.001006300746258599 -0.0005022322155141001 0.001006300746258599 0.004695458044129996
0.0020915630474243507 -0.0001726136316574969 -0.0021539977652579134 -0.0001726136316574969 0.0004517335466781303 0.0005160045797420919 -0.0021539977652579134 0.0005160045797420919 0.004089474018098358
0.004279532644444644 -0.0005839482432668513 0.0006436284882548156 -0.0005839482432668513 0.002300902983689826 -0.0008612318430570857 0.0006436284882548156 -0.0008612318430570857 0.0043272768404350155
0.0007115721517795751 0.0008006334404539218 -0.0014690521843191227 0.0008006334404539218 0.002205414591709083 -0.0017307271046509665 -0.0014690521843191227 -0.0017307271046509665 0.002325693239300211
0.00022586677333906514 0.0007648252934611432 -0.00037001751892537906 0.0007648252934611432 0.0031336719406757285 -0.0029757488308614233 -0.00037001751892537906 -0.0029757488308614233 0.005434574924365555
-0.00032227332293500755 -0.00047927827513411376 8.997944628954627e-05 -0.00047927827513411376 -0.002075036210350761 0.0015278142716918877 8.997944628954627e-05 0.0015278142716918877 0.001996074655443608
0.002209087222169881 -0.0004967232698229034 -0.0003929714593053653 -0.0004967232698229034 2.7544728455983548e-06 -0.0007189174127011707 -0.0003929714593053653 -0.0007189174127011707 -0.00029564675209422343
0.002932595422947049 -0.00040949829637895545 -0.0003452272633149938 -0.00040949829637895545 0.002928922792486251 -0.0008483776364442933 -0.0003452272633149938 -0.0008483776364442933 0.0018243791814013105
0.002592877105323252 0.0012716482970512406 -0.0006528100644068102 0.0012716482970512406 0.0034045284371595668 0.0008621500006722851 -0.0006528100644068102 0.0008621500006722851 0.00440348392249657
0.0027755904707479425 0.0008116513318363153 0.0002616749203318437 0.0008116513318363153 0.0012395127805192598 -0.0003103372739374147 0.0002616749203318437 -0.0003103372739374147 -0.0004407156552957368
0.0015057784889271008 0.0003268641110110048 0.0018537602250876931 0.0003268641110110048 0.0024257724193569516 -0.0014130445697919563 0.0018537602250876931 -0.0014130445697919563 0.0016554381802046112
0.007516038238022712 -0.0009310118218122439 -0.00026902018125343936 -0.0009310118218122439 0.004846035893022706 -0.000294728594479024 -0.00026902018125343936 -0.000294728594479024 0.0048855166704762825