20.833559581615003 0.0 0.0 0.0 20.833559581615003 0.0 0.0 0.0 20.833559581615003
20.899773408987443 0.0 0.0 0.0 20.899773408987443 0.0 0.0 0.0 20.899773408987443
20.83317381143011 0.0 0.0 0.0 20.83317381143011 0.0 0.0 0.0 20.83317381143011
20.87809354793841 0.0 0.0 0.0 20.87809354793841 0.0 0.0 0.0 20.87809354793841
20.871358709607694 0.0 0.0 0.0 20.871358709607694 0.0 0.0 0.0 20.871358709607694
20.831052340001822 0.0 0.0 0.0 20.831052340001822 0.0 0.0 0.0 20.831052340001822
20.976466003439704 0.0 0.0 0.0 20.976466003439704 0.0 0.0 0.0 20.976466003439704
20.936930115849197 0.0 0.0 0.0 20.936930115849197 0.0 0.0 0.0 20.936930115849197
20.873307669266058 0.0 0.0 0.0 20.873307669266058 0.0 0.0 0.0 20.873307669266058
20.894209639818815 0.0 0.0 0.0 20.894209639818815 0.0 0.0 0.0 20.894209639818815
