-134633.53231923914
-134631.40773588503
-134633.05167653857
-134631.84202453739
-134630.9637188908
-134631.4983942839
-134631.3078231666
-134632.7075089963
-134632.28925601242
-134633.52053630177
