0.1205428292827795 0.5613648940431494 0.504873386714324 0.13606535039841083 -0.43242715582845526 -0.10896309486498007 -0.17567499437023293 0.06531141961330043 -0.016536307092126362 0.2696228467733034 -0.27707441795534216 -0.06595393829330577 0.27804089563366957 -0.05556282486696883 0.16011827758255648 -0.04618498319649465 1.619448149793656 0.3045119453410046 -0.019365806121121487 0.1738528535598296 -0.9963014465570197 0.5893472381886883 1.885359094933011 -0.7152101941328005 0.9206536780147178 -0.5350445109810656 -0.707981280484529 -0.6839008424965577 0.19065861226325873 0.315655877772966 0.22091278316210985 -0.18590464251804112 0.24333871626579384 -0.2651056756292402 -0.6521433475793027 0.8508294581327284 0.2832394091154735 0.05875304966949236 -0.41021565272842253 -0.7605220306957226 -0.03139111271677174 0.8137374383764373 0.7572621289975281 0.23701791625408858 0.16530316421760563 0.521988706238372 -1.2442547787766893 0.1412885464705631 0.5126717997128203 -0.6644303924767718 0.09559053021281601 -0.5588043324048247 0.4647155835485158 0.2666190269499731 -0.0823812306113936 -2.039969041102829 2.0259588428666655 -0.04197068800483094 -0.3036035745941223 0.9880857435154466 -0.22207517890132722 -0.010514269267762538 0.3498780321806297 -0.48317867534970976 -1.2832959518395513 -0.9461371669978028 0.03225500337896381 1.0452429094527287 0.9211653275438135 0.14148729274493052 0.5227253272940804 0.10848666944919383 0.08953069717198128 -0.7774434890414094 -1.4861824736275695 -0.17725339460094633 0.10041571951560126 0.4105797209360606 0.05759759590881048 0.7051985755330693 0.21468557130547544 0.8366775921123785 0.5468530735802194 1.6207673828257116 0.08343872534163049 -0.24335157178160025 -0.9036136918132953 -0.6465249729512607 0.23753470798950702 -0.9132702410664529 0.15093146887696587 0.28979340818390736 -0.44158413973737504 0.19546503251296657 0.4312562754488056 -0.1220302124615834 -0.03571210868962882 -0.681054117076382 0.18809753640430185 0.0910443056030303 -0.6850907490396008 -0.06178283763475166 0.33433571357065645 0.6195916388955265 0.06829184239786303 0.7032015997076986 -0.5115711104494738 -0.1757377292873683 -0.5367311546548692 -1.1889161541053845 1.1124096371072134 -0.0762946580976815 0.17775347416581647 -0.08785279524892611 0.9053952091937503 1.0359152042938997 -0.7779898484631826 -0.22270278518299708 -0.5500846931436397 -1.5262232915995393 0.023190836294166513 0.030670689610979435 0.5911033016478464 -0.21451073629050801 1.0771497854636547 0.188097793514618 -0.20348198928017214 -1.5954978096256458 0.32987330692392863 0.19886865887787686 -0.1836796098422643 -0.41075198484786685 -0.348153079069723 0.009239002099764733 -0.052451532931496764 0.9329836603349804 -1.782556363242472 0.8227116168505897 -0.8649293878692201 1.0127066273879204 -0.748270209911563 0.3799884784127649 -0.5411534520922809 -0.6233133107214878 -0.07511503596728354 -0.40066529003582607 -0.8350264296622005 0.6702074041698651 0.20200874716875533 -0.07466149336963271 0.5278225393113297 -1.3308364206226757 -0.08027421157071982 0.17516720149587897 0.4586272112625908 0.7228273443584261 -0.379248772033263 -0.15872036879376536 -0.27369264596730286 -2.2942568001809582 -1.5115659466976805 -0.4811842706275003 0.29278874336680544 -0.10684142053628695 0.4065011799913128 -0.239456093381936 0.18506723421841031 -0.7406432894939244 0.08692488411801805 -0.0626169035002728 0.13294351693997752 -1.0080881547793026 0.052727155190386614 -0.0705022197856205 -0.331301554730023 -0.2809575550598323 -1.3425174565050297 1.2094404993109815 -1.21300430540284 -0.44042020133626086 -0.34943554532657234 -0.7254259583235377 0.2842539664229169 -0.12738376346401287 0.547928051811953 0.1953940700657151 0.48681215833723906 0.4427534774551278 -0.22568757884293392 1.064404055762212 0.024161941958184194 1.411989435253923 1.7786025208010465 -0.9718453703971844 -0.37076798825576146 -0.054189341558209904 0.18227990128126026 -0.5141553262368822 0.7026660389192028 -0.04205913395357917 -1.2628741936500896 -0.24678476583286532 -0.5068024854162368 0.43142751091934733 -0.4735092705807457 0.5783467733131266 -0.6243540932811764 -2.4080288863988075 -1.7832333347048384 0.0015331488150747792 0.30623227046622103 1.195778685553173 -0.049850862083856085 1.8159323675997563 0.25304977290597064 0.10131329162920615 0.7256982381483179 -0.6724573765463063 -0.6108822840469865 -0.742177980970896 0.014692311904852116 0.3997322366985954 0.33767197703274104 0.8492204617743955 0.44370118608037773 1.054100616953675 0.7716855035117097 0.09986678899066671 -0.31915437784452777 0.32352036812270735 -0.1857596322997446 -0.6003119647303081 -0.953445527733758 0.18957206406729932 -0.09483539721434633 -1.094488019631786 1.4146592687766022 0.5259993700596618 0.2811277620891094 -0.24457156023163037 0.5572750402444919 -0.6056040663671828 -0.6488952729556502 0.020110397596629883 -0.6879834972063635 0.48056206366246923 0.10820179121892334 0.1599367576993697 -0.1459062477482326 -0.10526353452620581 0.5142381157586756 0.09104456271334642 0.9393422555631564 0.27492908947756517 -0.7103035008598025 -0.046061313134436795 -0.04318759113106755 0.20581295140619396 -0.3160932224207008 -0.8646553082722269 0.5184832641882747 0.3594067976066714 0.24768079528457343 0.02169831090904005 -0.09568000460282876 0.07391613056317592 -0.7643138936379869 -0.2838312770632015 -1.763928977949272 0.527457185552111 -0.6477822423971296 -0.5208381375736966 0.2614128001586853 0.41284949080684374 0.3330956705159683 -0.0799314835193204 0.25958500292132713 -0.2318317440674588 0.25064476300890387 -0.21041214074110212 -0.15453332729561128 -0.2165794458940786 -0.0599493839704387 -0.43918915714263723 0.14611733531777418 0.33579635727658297 0.19255557217565547 0.3593939420908649 0.3950654273505454 0.28079557556067125 0.8029586025933784 -0.21389675685559292 -0.9293447780308124 -1.014929088960536 -0.6574444480772419 0.3214624571524141 -0.6880626871837312 0.07767379783339526 -0.7870925820953993 -0.43586266387256545 -0.7201220296121211 0.026560009876715546 0.5908467055523502 0.05892325669876949 -0.09986498921845383 -0.0003226734467413798 -1.2941056408605456 -0.7857376107294016 -1.0642505609034831 -0.6515509654109424 0.4634647418605502 -0.5425739865888914 -0.11509826122844048 0.7659995088705258 0.21918731583057088 -2.374884538436355 -1.461297794570748 2.4618983827237537 2.239086325656402 1.2288772678793547 -2.2559306509072505 0.06789383562849598 0.24736326404415462 0.3541280657062353 1.3273322641241592 -0.3841372104738159 0.18000910296921255 -0.23483582100110525 0.418162418379325 -0.3947098437833396 -1.8232332721365436 -0.179728081393684 0.15929166791620308 -0.574534598655888 0.99934511847935 0.15803516980128268 0.474973256720782 -1.140909801429435 -0.04352132032140246 0.3879100472526868 -0.21166041132590643 -0.14310528796432775 1.0566809760863414 -1.107458206639209 0.8262332568506029 0.277677855867296 0.3969009378973874 -0.7445629362633048 -0.421497653400145 0.29386526426043585 -0.18780597330581203 -0.26881860570445315 0.26032985150715166 0.7220421294529693 0.7357926462698424 -0.2579302409267235 -0.39457460375705594 -0.0018190554866097705 -0.2023494183376257 -0.30134203225345524 0.0152803231978382 0.0472249944252348 0.9337925293895207 -0.0796059818591016 0.4515818743800352 -0.5535330567035563 0.5212502854104506 -0.4217586203710155 -0.5338970276401838 0.3710718926494254 -0.7315372134275983 0.6603981313889271 -0.3059273376312925 -0.7457718689697413 -0.06500777232995256 0.5664693051492502 0.7330811608759504 -0.36296109061683296 -0.3642345580126179 1.4470351140041466 -0.9860645993203598 -0.7759810455632701 -0.4974020180379433 0.956450633108669 0.8670659745962486 -0.9745337158626248 0.06778816328856713 0.9797821087457579 0.07823584098445235 1.1049233560324971 0.33093362986764296 0.9618926300598466 0.1900042665087115 -0.5682091706584924 -0.3383394354134109 0.10855608923454853 1.018044494661066 -0.477598610158771 0.1495656988776908 -0.9474998516732841 -0.1174161107283397 -0.004855785430404541 0.16289404055548073 0.3974647808206574 -0.38158307659339447 -0.11627094138030299 1.8672634137735646 -1.0363342941091895 0.8443122258395008 -0.4278963578376373 0.8051635806644971 0.27533943754210644 -0.21385381943279944 -0.29955460133572925 0.6988440940699513 0.16957633767166277 0.9442623185725932 -0.2338526311522295 -0.3234491485651397 0.016212605204120465 -0.2997636320227418 0.2796131252167959 -0.6963773776970136 1.4722738339662775 -0.08194388596365887 -0.27617864561395017 -0.37915569809882443 0.12225826931198944 -0.6813559645875169 -1.0186757004871616 0.3086611916226878 0.23428766180711907 -1.660344888008018 1.819044173755861 -0.9194252049242553 2.4712613119958924 0.6607691415751008 -0.5487320357704872 -0.3522817565261159 -2.056357509763181 1.31407694177615 0.8489849487248218 0.7090937968224175 -0.5062620395317345 -0.5939032329904869 0.15411089504621203 0.62167011869111 -0.42070241119235935 -0.5238285876605882 0.8528583156372989 -2.109419165474851 -1.8185343239989777 0.27809668857226943 -0.7140061465223703 0.2795421627695444 0.5838810728677944 0.4994226480123979 1.1136836187236303 -0.10905179792404444 -0.3106712800741811 0.09114843528106238 -0.09077485399172755 -0.7237699107773535 0.3073262748613481 0.7188997271692458 0.12375439424154171 0.5886676956231603 0.2953529045495558 -0.3425907544905971 -0.24637853153338213 -0.49584881461821056 0.3043435380839403 0.5254764076766563 0.1307354535450652 0.048698493646967746 0.666248162411801 0.3867970166941661 0.07734341107717002 0.27104698081433964 0.12477846463068187 0.06440973373463744 0.05450790123989322 -0.5560524806913004 0.923719718534551 0.1202983173721412 0.9683083037782034 0.324015562591571 -0.10165293435681202 0.5096965191345803 -0.07941006379821162 0.2837906536332532 0.08629547806413525 0.12400353413787031 -0.21980977990591818 -0.5431118613702324 -0.5242217093339488 0.18717039660434215 -0.5283002502786966 -0.0529050755291476 0.31539979589810196 0.6836496457177 0.8725485949773747 -0.46103530648345115 0.3435816576489567 0.08923990540443986 -0.07817310606731699 -0.1870356707986908 0.1532364628610587 -0.36075097033939163 0.07130620374415461 -0.14315850979976638 0.49062998942143243 -0.18300829480685257 -0.7903098034811163 0.001866106674461302 -0.8924584465274245 -0.1650429685776835 -0.2641870204697127 0.3269939284936046 0.6830842601325332 -0.015831053494985637 0.6271784501038489 1.0363831450692538 -0.7198734039364247 -0.028333042616738302 -0.6538585304981964 0.20813491467115125 0.019833746896475518 0.12743158598281282 0.4265539848771299 -0.043182963145377236 0.5085960869815499 1.2744387585592374 0.43132286702068295 0.33893181758177116 -0.23760669887802305 -0.04149477680967692 -0.4536500697629735 -0.7205197792711721 0.059210191811568995 -1.2672651236289336 0.43365228648480797 0.4745899052394343 0.6958089067880533 -0.04756000916715035 -0.304612732584927 0.6649559259629387 -0.13178292097297303 -0.3512376315323177 -0.759387402870647 -0.7380307915717419 -0.7020973108999262 -0.2847291062871225 0.5765140909797619 -0.19506779707454794 1.0046282212551603 -0.13878660598431583 0.7890941859064604 -0.8021697881434959 0.5153403476839189 1.5654416136702136 0.2677238299783776 -0.15362958453441927 0.32151773587038174 0.2105486663189664 -0.029206960581259378 -0.9390586628844666 1.9846838953772787 -2.488443480202134 -0.6535232586459648 -0.62301763385794 -0.722429337589059 -0.2918608322358973 -1.578293272821901 0.6144509752348515 0.24816313423763073 -1.6560228635938963 0.19785307312916892 -0.2781049161023856 2.310061371313383 0.555959663867178 -0.02723646711844987 -0.023109846544586008 -0.20345499269697864 -0.6883071990943694 0.8416645038040086 -0.725748374659963 0.583788256043672 -0.1587692197538298 0.28826514446483903 0.06095417108586922 -0.24470397204443664 0.3940174457020053 -1.0943859468362829 0.03066991828003105 0.2587347391058899 -0.29830144565491856 -0.19255608639628774 -0.06553279159548712 0.19830507306492298 0.3594047407241423 0.04693625954022239 0.47240421044202513 0.3285535596712406 0.6367087581917873 -0.21045944903926977 -0.3443794709599037 0.06462776328271451 0.06375641642135471 -0.024207450484138957 0.3937855321968573 -0.17527184539454332 -0.6777157967317683 -1.4654362422191538 -2.0144580413159177 -0.4612998729987475 -0.20191695878589744 0.9334222905342956 1.2062736715472258 1.7068620577329505 0.7363423481257254 -0.5929771216317916 -0.443595513740449 0.2982556800186476 0.5431116042599162 -0.2846249766090905 -0.40198863683293995 -0.4205553440915338 -0.129665360409338 0.3108018921147744 1.198544164113452 0.6961778600916977 0.10205736888408229 -1.4304111322942203 -0.41301378429885 -0.48568087294627327 -0.2549287350962383 1.3419489855960696 -0.9362073094786005 0.0720759920306436 0.6696954975304531 1.059179317028163 0.13494614919230308 0.37520725497403773 -0.19168499664524408 -0.7372725732494786 -0.7345248353010123 -1.5671760798628172 -0.2569393377683639 -0.5026411549496956 0.23710996174726262 0.010140430868111568 -0.053935059455558716 0.3056458018351317 -0.2834558960016538 0.6464347272302997 -0.2828691702602484 -0.5330773599523658 -0.8128321529533484 -0.3321615887374731 0.23472834888896352 -0.23259150505161877 -0.022586884161580455 -0.6882478066113437 0.3785648585923609 -0.15317167106139426 -0.48080040492552034 -0.146462891582651 -0.5083713725652534 0.0777326760957887 0.5224088244949262 0.7812767467445706 0.10136291392021897 -0.23348316362795274 -0.08411286859051965 0.4489616631483688 0.5392773181154906 0.44372458311914553 -0.32644474085835395 0.14506215458038244 -0.17668260969914085 -0.15063939155784378 -0.49202018490073973 0.0326165004834406 0.33259533384078205 0.5606272445461764 0.6535929355416357 -0.028265679713912608 0.00107729222457879 -0.3210965891725631 -0.9232628335027905 0.45266430881093656 1.1135514640211404 -0.3635388174971739 -0.07833842800058767 -0.49102465375668986 -1.1522787053880088 0.1969166773578286 0.3212238587790468 0.180227903848238 0.10483056075384527 -0.12588609587256383 -1.3447175494801422 0.29087044329817 0.11362090535196562 -0.32277243421308927 -0.3756204312520563 -0.5041326518935576 0.8978281954797699 0.7424487181337793 0.17268582983492195 0.15041904801692157 0.4627916270529255 0.38871274565964026 -0.21413432678769576 0.08424965127870006 -0.9370745425749022 -0.003072468277736644 -0.8225930889948543 0.36526659882155804 -0.5989803904030782 0.8092074117165676 -0.12935528536808688 -0.12860220925214624 -0.057281093109656185 -0.4578036869200309 1.3549546538271182 -0.12584110156724132 -1.0972902649672716 -0.9821274690494828 -0.939473381824382 -0.32718341879659135 0.36818685779214655 0.267760596753584 0.12218370732031215 -0.06765266615196736 0.20368664909181047 -0.1448425823704086 0.9809326774104331 0.3207227507729122 2.0296771722585176 -0.5768195380353227 -0.3277835142744355 -1.8505075344714643 -0.18424113877268916 -0.12340395288065843 -0.12142446055678444 -0.004703576123256416 0.02681506331031511 -0.7005525921206257 -1.3919440865672736 0.3038267463485219 0.4481435381224475 -0.6827793272976047 0.48187512604693783 0.4613674930118893 -0.3686044049455394 0.43102076239923187 -0.41115616226482093 0.9266921708993137 0.4631240706916798 0.7267439058040128 0.114401492271732 -0.7532841181863865 1.2749570929565526 0.2540640731030979 0.1489434919126596 1.163855354482015 -0.010142744860956726 0.5185699103648101 0.9936228712835921 -0.13859608724006453 -0.11220499884104547 0.23025360094706152 -1.3989441720341906 -1.4048322553838515 -0.9196848863435451 1.131000255625207 0.41461223913422146 0.03676651809607216 -0.034690095183017675 0.7522762457471625 0.853094600017821 0.12972912376773788 -0.2189394614858229 0.7109367635684273 0.1386148562931419 0.2559299226672431 0.2354045490203817 0.5372294344475265 -0.5146217243503396 0.14961917782344553 -0.059734439746155193 0.5630674785565528 -1.3738527762832016 0.15628759098255665 -0.33060401444236615 0.3150575820673348 0.9823634963196889 -1.100344221302247 -0.09905303484011974 0.14778520993850033 -0.18885909716067473 -0.501386199496672 0.6010082194663843 -0.007405805545767891 -0.4653555311253598 -0.7678195927984002 -0.14830765810087362 0.9503869434130922 -0.6044730380865332 2.1550019963109723 -0.23257196466759303 0.6222373040484896 -0.989411918526038 0.5836087930430143 -0.3847067098240407 -0.665686633481376 -0.47178097503572936 1.3097898843650215 -1.187419000734568 -2.0217437763440538 0.7524076291187041 1.1328162257880232 0.6190439939221727 -0.9064303353264841 1.57112478009792 1.1712241361422604 0.3103825451891687 0.35320375411975297 0.864929130758904 -0.37651851758629346 0.3079893623666438 -0.38103568873035665 0.3560821041088125 -0.5299802090842809 -0.34364387834545973 -0.8081149499833372 -0.2357724738827617 -0.2639018851291261 0.38441874626997663 -0.04789579524001429 0.37606291810611364 0.7880770574958557 0.029083804739833782 -0.4101961123443968 0.8340008166111638 -0.5179865270575144 1.3229888995537988 -0.6440191758102715 0.19506265486822535 -1.1248329504722305 0.09103993472765612 0.24758823557076717 -0.7202194744219339 0.17221377529450987 1.0153828886685028 0.6648803355299969 -0.12269587107004032 -0.48307583122325837 -0.6739259906720328 0.270805811337811 0.10758344090863407 -0.2637699875369522 0.39060199226255315 -0.4501952784451537 -0.16109375412194835 0.3974406124509413 0.35464897120671174 0.22149925179319918 -0.5692126722223423 0.18279283636193683 -0.33022940471176676 -0.3671728147053354 0.2069316383916694 -0.7957070632372876 0.10403300455321439 0.85720759374493 0.17817693485648023 -0.10437984636967186 0.2028250724224636 -0.3939441692619086 0.9997462105725103 -0.2559754311931979 -0.6036968220421409 0.6219912494759545 -0.19495955363145778 0.10202908674930816 -0.3962219095524918 -0.2553082299228442 0.33926040456578344 -0.6587847641552204 1.1009448310007233 0.1839593458662122 0.1902328375797498 -0.5815930481645661 -0.4562355711019626 0.6275571735995062 -0.0036031439702260523 1.0616529753796362 0.6967985243948323 -0.06375050288408377 -0.39354744804412223 -0.1000321109239374 0.20444795273786726 0.10566436950905028 -0.15378230806219967 0.9220050498362896 0.5977182358612029 0.540283905003134 1.1870824433307556 1.265316227432679 -0.051058509238712066 0.47071988076106674 -0.3624916071795822 -0.23623835777558672 -1.1204636177599412 -0.8898634321067384 1.6437106218854465 -1.3627520383843499 0.20431811202822228 -0.5437906326048119 -0.2421362113172604 -1.3960442247785765 -0.3648595931911265 -0.4901371089454139 -0.9272979228041127 0.5853514867657339 1.4966422355083129 1.269994863855271 -0.25139243980820575 -1.1799759141929613 -0.2258431305841917 -0.105581837097573 -0.3068786458009683 -0.9431729421631564 3.275498524191378 -2.057411662059308 -0.8021705594744443 -0.07228476560734003 -0.4467317453765855 0.004177271306141193 -2.525019736664271 2.354569738138403 0.7553746821668281 -0.06080761820567593 0.007027339160426607 0.9475222202707875 0.2580801362410265 -0.17719374500760451 -0.9816911528430126 0.0314492196482168 -0.25055323173636207 -0.1945039541512779 -0.3536930350513457 -0.2545551538069035 -0.42067258639568844 0.18497236051175886 1.3542074912484485 0.9953023158685439 0.15946701715180278 -0.8280327719531868 0.48765753705666975 -0.5160090916161694 1.5714711076937453 -0.20502799361105334 0.00517665910493302 -0.2637532753664038 0.5321574192412578 0.5013530322658913 -1.1559368709658866 -0.5616803684010391 1.2127186558416212 -0.3486739845701995 0.5752989876257383 -0.28498827348578015 0.04593969995490798 0.046111706756398 -0.7304807471386259 0.44673405936943056 -0.05753408966072672 0.7402889914782993 -0.17944397449436195 1.204466443135158 -0.7324299004451967 -1.1379409486090981 1.358367793273725 -0.5682811615470084 -1.0496783195162633 -0.3440714528011817 0.3121877167187075 -0.024659707530209143 0.7532386096604318 -0.5078607514774222 -0.4252854025773514 -0.21002904637007055 -0.034540971199663095 0.14730338520607533 -0.3787381509454316 0.532560053996315 -0.2032480188924951 -0.777948453702286 -0.35876093649255636 -0.8703631572902817 0.17839033641886695 -0.6088678247201192 -0.38723821799664276 1.109188044846122 0.6689444782970415 0.26277959859922484 -1.714134680134964 -1.1316389176504704 0.551138845439767 0.0019882340746223822 -1.0525625830425938 -0.3234398925937591 0.4376243837586785 -1.3516109341658658 0.3285880124536018 -0.01285782979927463 0.4610437911238834 -0.26737775949286857 -0.25534576802899894 0.5669866111053009 0.031209078612952707 0.07266965975058452 -0.09917002003395825 -0.07001242463339555 -0.13626332534182983 -0.10232039273748184 -0.055717862387594366 0.31272302039688726 -0.20596773181650332 0.11224767915352281 -0.2887246005997608 0.43265367001696453 -0.8592014842465074 -0.46278802750849973 -0.05161618151439497 0.6858595088848252 -0.5990963471556522 -0.4295709173265828 0.21092764692493998 0.7889790004848347 -1.1011592610043748 -0.7609652888807281 1.0899824184519487 -0.3578746772328611 0.5360559829647156 -0.444135445404319 -0.8498010168682139 0.005909937726531757 0.34174871820527597 0.2099007483223224 -1.5435353005154255 -0.1960720699693462 -0.4516302111194674 -0.30604123750133744 -0.42938759767118306 -0.26617268344117384 -0.30432271214833395 0.2000624220756619 -0.09352310616082601 1.6179479110990458 0.0358648322174092 -0.2686658821766728 -0.36535761587346754 -0.6992580416789183 0.10050467968498175 -0.7466020781805207 -0.8903845947175311 -1.2347368119839253 -1.1344547898327106 -0.3384204251629914 0.9668229774819285 -0.4077785040418396 1.0101995446953504 -0.4206473895847078 -0.2765398856081108 -0.21286985825297533 -0.09151893124660368 -0.10191235866578578 -0.20647963845591535 -0.06987924148964093 0.09627650053624709 0.29930031923307815 0.1625939928165587 -0.24765019915695413 -0.15384427164838665 0.8852570436829786 -0.6723763867967258 -1.0732458224235581 0.5211883218242638 -0.9792738016507715 0.03233882134202172 -0.33043817828846317 -0.0460235179179659 0.4067868295525317 0.2833072862389314 2.0360241975224675 -0.014037966150304856 0.8182628370506165 -0.10060983780427833 0.25246279005424904 0.21336479561152286 -0.5874893590443431 -0.44929616366965197 0.7609961421186635 -0.3746284996524323 -0.588925063049605 -0.35741162155351347 0.42402736180053424 0.427332000693735 0.05973289708425842 -0.1825131003379889 -0.045917074247088664 0.37449608783962596 -1.6549530275684854 -0.19239950621376542 0.21797298380749558 -1.168096646256872 -0.39795843262762426 0.07908199103483154 0.5159494420228276 0.7467195775949914 0.6359130017633694 -0.5734027990442899 0.5791427868518606 -0.7104989047000602 0.29643559609077336 0.13509784427881893 0.24476619274093972 0.22499878030602538 -0.8906512181153565 -0.8647386120146527 0.10746002795689234 0.5787722908863193 -0.7469648608365781 0.1445178520411382 -0.35608544654292223 -0.17920460479004618 0.3888063338147111 -0.5946622226436984 -0.6174666221327237 2.1983281699024335 1.4137897216874555 0.44696931530868833 -1.7277620411104115 -1.1430327613097089 -0.09172641927171944 0.35089901724597633 0.2545893494789486 -0.65834844794875 1.356835930010231 0.6658496414218016 0.19990147101776543 -0.06699009286730398 -0.4465980480121986 -0.2981507790096672 0.56737253368981 -0.8820256812298745 0.45975566844007915 0.7992680411156686 0.4946010582540385 -0.00016249371979326852 0.9342733256806813 -0.14743939656330737 -0.25260677183128105 -0.06368982484947741 -0.15040233584637325 -0.2848067536025934 0.5657262563356386 1.1772415459809338 -0.1603645892654077 1.4072316088539636 -0.8082882423364078 -0.0501622226766878 0.3311632293799458 -0.16214507820459817 0.6334442285079026 0.884703999392986 -0.2787232664126748 -0.15604565017507965 -0.4348601907499801 -0.3791942646462438 -0.9226804786367593 -0.6360266445230981 -0.056665828123160476 -0.5505932573489422 0.26706074247308204 -1.5143224263968953 1.253945523701892 -0.19452143765277466 0.24537528707984838 -0.375941562036901 -0.4606907786598388 1.098679174894998 0.2856781004639532 -0.03751650888821926 0.25846477327395484 0.47191132996600665 -0.7300380031742524 -0.35910135055111053 -0.2401857724591089 0.7421129320609154 0.10786266271194972 -0.4426840576697731 0.5076620052030547 -0.2028726378309474 0.7581859263633781 0.34274347801837746 0.009545477596590012 -0.21059571750681794 -0.5128782592966715 -0.26834809382593783 0.24379611551818656 -0.5893462097474237 0.7305717641905354 0.06564000659731277 0.4701339263506097 -0.02424987368630017 -0.12084210569075318 0.48449302328575916 -0.09114380729537207 0.06850138730550782 0.8268729473171307 0.22700886875751874 1.0613621836120946 0.455240554178545 -0.17676308522808912 -0.9245090472050658 -0.7573847706183214 -0.05415951676153898 0.02740795969930764 -0.43696823823191844 -0.7731554031890169 0.9255824827749027 -0.40664464754771257 0.17198880376789732 -0.8896220055198937 0.31428522267768455 0.6156573368381267 0.531614145143278 -1.1985657613800067 -0.7802333930817209 -1.639120431411603 0.526301731791429 -0.2713783960118294 1.0435302976369962 0.1601290762158339 0.7194121480292901 -0.15525272196013906 0.053028231370573185 -0.5550008994983345 -1.1801407219055997 0.1709238528384927 -1.1248951711687336 -0.7827309626925939 -0.17634759495722532 0.028814867349163276 -1.7166371348418437 0.45700844471224517 2.3223707848083555 1.3570171927831016 0.20544682631602684 -3.256444849994037 0.051492254342020996 -0.252308523864572 0.3123779783526427 -0.27084386366459806 0.06099068075075947 0.13708839234628648 -0.21177636807848046 -0.2193184420917965 0.18830451020878536 0.2571486255656926 0.04028918653734997 -0.15934900351669976 0.8481056314436619 -0.46643050935709346 0.20915127175080755 0.30538534908489345 0.7676411582390069 -0.8983969234990463 -0.7410657217433237 0.031103920493656113 -0.12374719515269009 -0.8881670182409218 -0.9959468914310784 -1.3957318357444801 1.1274629318959097 -0.510871770389604 0.03798753498736684 -0.4297701778215824 -0.03286332638692405 0.22142340424994122 -0.28571743834232083 0.21006375626274792 -0.6941834553694883 -0.24563059762376405 0.29607127077281914 0.14550387010349133 0.5256111334823077 -0.4974745231470916 0.3125808383920681 -0.3064868096791883 0.5203593981650652 -0.20623486943496094 -0.05351365564742397 0.35037296953917724 -0.04592067379151447 -0.059042041664820896 0.06923466592710657 -0.10699542961564798 0.43188748127490134 0.44940389289210986 0.7618039827319396 -0.6337015959343474 0.12007180318363192 0.10093739634702616 -0.27229190896503425 -0.010051984919363332 -0.28646434381067437 0.5408631745453717 -1.4438988823680101 -0.5961804590604377 -0.45169011782312524 0.054413798864190156 0.03971403076017031 0.2969606153563079 -1.162881934825152 1.7125956177826185 -1.4014448269688573 0.12358830097732264 -0.09340046454003269 0.6999797503362912 0.07155277253732194 0.4008151853501291 0.2901772738858874 0.031932587042538554 0.27163242100416446 -1.874706243204855 -0.42756082887508945 0.05240885261901941 -0.4516320108916802 -0.9922162207440525 -0.5676964926881319 1.3593710377272588 0.2249005641652643 -0.2070565940053079 -1.1638556115923309 -1.1425463085915935 -1.0848381552468478 1.1014788491273222 0.31159790565350853 0.9912607988093186 -0.3139100987264529 -0.5130685209306067 -0.6980149133004365 -0.3816311562225105 -1.7643704363620645 -1.907923353386772 -0.26359360986008795 0.2794143789424285 0.3021719843539183 0.407421377812737 -0.2971511341005592 -0.11636144421158025 -0.18365595569318047 -0.869200247330432 0.3083770847233657 -0.19447515779587154 0.8477191946385206 0.15831747692839188 -0.04325958201958356 -0.2584321202638065 -0.5088868787490912 0.10090602888845848 -0.058486683381983144 -1.1873138426152712 0.06955708226353181 0.006617505316517635 0.21271996293867235 0.10992802988141068 0.01780848893633062 1.039256352851991 -0.24311168785665227 0.2567902137850093 0.5163554192119947 -0.27384999748077354 -0.2185802783741913 -0.2442512007777342 0.4163683025933797 -0.32751894775913915 -0.20863216602254392 -0.8891954595054364 0.5644427616375247 0.6325420284086074 1.454168125504502 0.338761610552494 -0.7010485579204379 -0.47223168941990284 -0.021201316667963488 -0.03433502583644409 1.0835731724914952 -0.021992445110691157 -1.2460450379078927 -0.07461418507146504 0.20214038765061312 0.24329526462236806 0.21766522275908964 1.001022763292089 0.48998078587320776 -0.11049161569436454 -0.571705356737209 -1.8176928019342888 -0.2052858752581303 0.716289029019276 0.8890890158345591 0.20802127191142242 -0.36458345671160436 1.0328975005134986 -0.6447632530651477 -0.5174267978993023 -2.022856549792258 -0.129533462817164 0.8261859485524352 0.8577606380349228 0.33397601623839257 -0.5371728701779781 0.7494608877855545 1.90443616616912 -1.005233716049643 0.2248601978456321 -0.3407503588477486 -0.13106892562508393 -0.2318633686363426 -1.3076759233458124 0.6126812849289385 -0.22175044857205684 -0.12300671744223976 0.32161595201114285 2.4016504936762892 0.5724756592443302 0.5382473341890794 -0.9064519325930389 -0.23709196402513358 -0.8162728032037813 -0.7825486714784587 -0.3451490021360765 -0.20477653972187962 -0.28813067576950374 0.15679744073943963 -0.42432843798072084 -0.05692319554960519 0.26886591400262083 1.053302546532412 0.3898373461823867 -0.37498691143311547 -0.750008018538276 -0.12979751511182808 0.5746991492582102 0.850959041732057 -0.015477783920624955 -0.26889856701276915 -0.06688262075516223 0.10502442193220624 -0.3160847377802685 0.383485692932746 0.6111766753589538 -0.10619221698806229 0.25194985497357253 0.10313414688802883 -0.40455973999422584 -0.11942285674572335 -0.83854832677253 0.37697900216247976 1.608652858950365 0.6887250033580784 -0.11950693181909741 -1.6842065251169638 -0.37858671296923185 0.1260277636567507 0.10193215616012767 -0.39139800580128725 -0.038933958061036174 -0.19386657767759516 -1.104731294626349 -0.02854464440691213 -0.42940816649647334 0.6206473338535504 -0.6193635820451204 0.7781160896284018 0.3131490521907123 0.49389914709100746 -0.9066982442758902 0.2753561497126548 -1.1216393832355973 0.8735886062061148 -0.10714506781963481 0.25730109198315687 -0.8077999898460798 0.12022144138761877 0.05235614500421305 0.7005536205618902 0.536818829272669 -0.3302574297362248 -0.09502360196575248 -0.23030270901744207 0.06295886022072383 -0.998998276662