20.407098315288923 0.0 0.0 0.0 20.407098315288923 0.0 0.0 0.0 20.407098315288923
20.636072764166293 0.0 0.0 0.0 20.636072764166293 0.0 0.0 0.0 20.636072764166293
20.679183772976437 0.0 0.0 0.0 20.679183772976437 0.0 0.0 0.0 20.679183772976437
20.85822982306844 0.0 0.0 0.0 20.85822982306844 0.0 0.0 0.0 20.85822982306844
20.53950056952781 0.0 0.0 0.0 20.53950056952781 0.0 0.0 0.0 20.53950056952781
20.714136456765395 0.0 0.0 0.0 20.714136456765395 0.0 0.0 0.0 20.714136456765395
20.793647978206558 0.0 0.0 0.0 20.793647978206558 0.0 0.0 0.0 20.793647978206558
20.714250229865193 0.0 0.0 0.0 20.714250229865193 0.0 0.0 0.0 20.714250229865193
20.547593276575164 0.0 0.0 0.0 20.547593276575164 0.0 0.0 0.0 20.547593276575164
20.418520076154024 0.0 0.0 0.0 20.418520076154024 0.0 0.0 0.0 20.418520076154024
