13.683326748170897 17.68905648357728 7.546667399583736 13.974189120458712 16.99037865855673 6.922353040824102 12.688133784629205 17.680485502284853 7.52681129292296 13.503621840406463 7.022633521945432 12.943365363258522 1.218528247504217 11.804343170790672 6.0628060597841325 16.619295982791517 18.741001587533788 19.45790295134989 4.20749471644964 18.05203754131132 6.309201364842931 11.985986752895057 20.345897427441372 19.368907595596916 19.698237348209048 1.271374469301489 0.4046584746233587 3.376027902691508 12.551345004621822 19.879656452231966 3.9532018643428244 13.029422096854095 19.223629462690372 15.043745550261319 15.676528854821798 9.501891896269882 18.436405238079786 7.3354335249221805 8.645365165780575 1.78037443761092 10.04384320622901 19.462331291684308 19.244199817792186 7.0268781983950115 8.223081080342302 13.44321682939321 8.881842621058144 19.99446678735378 10.767315655702633 7.664314321371376 8.275731393995748 14.374800867486147 9.064220858701882 19.835128163708003 12.75251817981394 20.232168668530267 19.979773676566776 5.05759321096963 18.620558893276954 6.355443849625376 4.37846538613513 17.186980643726223 5.865469419075288 1.1182314407042349 9.450098680745679 8.130677739170673 0.4290061836233299 9.482117418002368 7.443080968535329 1.5000625351521113 10.371601612270865 8.081619074820718 3.5501208584192376 5.807288781778399 0.07770002683546258 4.086868358307967 6.599002568018348 0.21106449574553873 12.935161709735775 19.21069136235848 14.988319871236994 10.748377868466045 6.727730544191192 3.5501616726158685 4.362262150072791 9.967643101119721 16.455916753679315 10.241179846937854 6.001156215773644 3.9886898083131115 6.127578189836859 10.165979689646015 9.162276966106845 18.141726738407016 0.0813039203979426 12.887674391956098 5.336231731366586 10.34564378321382 9.668005676556334 4.124805154076089 15.781339711769121 14.71245671621092 4.779464868030558 16.414469937000963 15.096681563291177 8.789133173411786 4.617595764193686 0.9774591951057089 14.151465583523626 9.946256462085298 15.17443260787243 11.623577093913841 19.55822424666785 14.190137034831098 14.903671227425177 10.491064765808568 15.4891304709925 9.368470287484524 4.0147700799600505 7.516954664436675 9.11642221619239 4.009484641496392 8.446885727566075 6.0209306940411595 3.801964858728218 18.75728645198939 16.902444471916148 19.371029933821706 20.16196825032567 17.107025632526923 20.243657864881772 19.80461955172665 10.619282564523527 18.60649840253772 10.269076350334855 7.215031644861975 13.123825333660623 13.698162708646112 7.447162388198386 12.351865618589871 13.152864634563278 8.075313281441295 0.6095314567400387 15.262101502234911 10.681503807286845 0.14444960471494112 12.895041354447917 9.838853903651932 0.5376127608572975 13.225513904565707 3.7053372482053253 16.738861171820794 13.193372724719126 20.275186831778896 11.684716760466447 17.62691686920722 0.6365055592931876 11.254412685390264 18.023161497195186 17.415397295169253 2.667860776954351 6.593145730801861 15.230960270205781 7.215501008123227 10.993936482493917 16.196705790878514 6.994900275334954 10.974917066864068 15.003217053007155 7.333413222188967 10.072923321328297 9.378184066282602 18.619171210591514 16.46007980173563 12.814963900658725 19.263504932798448 19.944755095857737 8.808050553550059 19.44682189696469 16.310801877559292 6.901170472772832 15.086478014133535 5.675009970498697 6.905966140876925 14.284213758064581 5.083795925206461 5.920405327740046 15.237368099076779 5.731333561848894 4.782648375367742 15.570187465500826 8.909269761193892 6.000401153135979 15.160800666197815 11.691124589337448 4.119131980744439 16.23509154280957 9.10515749792235 13.747813178847212 5.523405637114415 15.259203694274138 3.259993141670775 12.025637744921664 2.159519957920504 18.781346420903116 16.429918110425636 7.190747197866781 6.286733149597797 10.892676460653455 2.1201138510736817 5.293866595264046 11.043525731400068 2.093666251657067 6.626919478513664 11.653595935535632 1.5997430475829717 17.391949539204983 4.511172746479454 10.537021551214599 17.629814677167992 5.465082150129319 10.650995195305487 18.11221807424311 4.032381405806145 10.049842893133706 16.97756300081473 8.044212863608795 1.2814188430922742 16.83295830215259 7.140484514716225 0.9278781090388829 16.6698647724168 8.64001850602197 0.41857203425472267 4.991310955641572 13.753037396015927 17.89873941876687 15.829459649596574 3.630177905110116 10.00139644173321 4.741344408377597 13.762608325125795 16.946727875260326 10.862208662868726 7.391430602699333 12.674828356527634 10.67030031031175 8.086149450646714 12.052656743091106 9.994049886339706 7.288191092322286 13.132682014329456 16.611214771858663 1.4232910312899945 1.5411093727034835 8.119943605456832 2.9113174598557485 17.80919307135938 17.553655386255333 1.3790504828522796 1.26247289301636 2.9484583787895744 18.593090938944574 8.707525187248946 3.3324179335917354 18.41020252384296 7.794572829917866 9.809590124667809 12.494368386125535 9.27496496300387 12.631912228770583 11.128153968113573 9.946154426593722 16.592481055605226 11.867686803961329 13.800422678304026 12.106225376168739 11.937397451806355 9.670434121255854 2.0386548367285426 19.386825027917737 5.515161169395039 1.986994267343389 19.87994215160838 4.676837570602969 2.958417042767435 19.0679028954464 5.61733951065969 12.745926687058102 3.0613300395714376 10.334970870794923 12.104021409550688 2.3826919850965043 9.99468250638748 11.49046159160321 8.711871899190102 6.421215927495552 16.475140240292315 6.593635501161427 6.885477414168374 19.81570060611185 2.634923720273475 16.76361498207724 16.84140684085512 6.255285811093937 6.036889044923715 0.5728088833216763 16.585746713161182 5.0883467081307705 13.99892252361684 0.4057665800618789 13.603086037595183 1.0206651036588386 15.83094936777359 5.541772025598175 10.25709738362378 6.819623707904937 17.366746772785604 10.657382617078172 6.863845889954168 18.258781854343514 10.614527710616066 7.548932587496733 16.743881318006355 8.98365363455312 2.570559732187054 17.606570992186878 14.779534848373272 6.9641059639771825 7.783859103302339 8.051416569314092 15.846846497361199 5.010371185468052 16.021816958316485 18.12923759423806 17.771276682689574 15.590757820602638 17.185837846220565 17.667098445790025 16.89985277043011 17.99746896041624 17.37125674151328 16.557707360075973 7.977604094707692 3.9522631378203212 16.413327139495305 4.789056204238744 7.1998487637154 17.093699797327037 7.181013011970388 4.135029110332049 18.800059730058237 11.6572896203307 1.7082741185531727 18.869974448886417 12.090287432384498 0.8485577585971864 19.50304345282331 12.097531952286426 2.1701112419461395 15.892946132455437 15.09753866142042 14.926404734948408 16.404756158202883 15.633490284474854 14.279805824828479 16.386063256146077 14.255052014572033 15.034195028249764 2.4942575915861886 18.50154469590219 1.3354405137525072 18.96949986737008 4.786056360786396 18.974724084538796 2.28069730771669 17.578552046199988 1.667784394785808 13.771669076777783 3.509245440493714 3.8309429383359284 13.216636816798557 4.0791748822431035 3.2848081732221663 14.701130776645932 3.615627644011315 3.5102862025077934 18.516952055130233 16.00828705213345 6.335261229391555 12.91842788911724 8.32154532971357 5.760760597619541 19.274810465265116 16.16080970494192 5.702416703536129 14.816165589849216 12.555895787546131 11.100318686011517 15.537964657260986 12.08002266193191 11.631576676453435 14.566505149059973 13.219106075694706 11.720000633453582 15.809134179674546 10.088575565736125 9.998172120199394 11.356468584065025 14.173199143229409 6.182901833369608 9.433732187896817 3.295093350773072 17.113780382069283 1.0914103913884508 19.05084256125482 16.48667025084045 0.38195761845743126 19.528287033439323 16.028571707858845 1.7535452254558095 19.675463026489187 16.737391860742093 12.134713685416884 1.263746295951234 4.4652567752700545 12.411087017900842 0.7126260767190469 3.668175922173184 12.543141351099075 2.1251952185541882 4.472542109368612 16.883261799499778 16.712005430437873 12.0458407722538 7.829326118348803 12.546875850090773 17.58447010471142 16.215459914230266 16.689924950060732 11.306450786094251 14.077612294720595 16.267600050425827 1.3519702633878912 7.787654823588982 0.6695120001083359 9.608600613360528 13.494438646164584 16.52258674387536 2.075299863173307 9.3278601618371 10.470106675838766 14.791024044724782 9.130258228850156 11.02103710905662 15.57957473072586 9.427344766124133 11.177784031216355 14.096060311597617 1.4574851652270926 20.171559586533856 3.0102102582916386 13.349466619732771 4.623289344623651 15.051398212129552 1.8116993335248885 19.628036930004452 2.284370585413442 3.1521212199761575 3.352110783465989 16.07946701105718 3.4955114633275244 3.703357759668742 16.957319159285962 2.1532957929343413 3.476063498633054 16.082160748034795 1.7713136859589318 14.57544345812207 11.101237005435705 2.2343323803443536 15.324771701161163 11.606129024854269 12.733519171282405 10.821965864990977 12.605403408059024 2.0031281192714565 6.413216344955958 3.9744252465907253 2.3371637487550947 5.641828028638036 3.5077149081200676 2.1303786215262717 6.209553503769374 4.90884587134949 7.849549552779254 4.944048115943363 0.6984166141621112 7.602480813476051 4.675633551802368 20.208149513813172 3.5926696584066153 15.40821632617238 2.59180352153327 3.150529466307565 4.527069876067064 2.501257226308333 2.6806968417946684 3.722193511413754 2.7646924584603974 4.133682241843239 4.307673162079393 2.660493814462532 17.862720890240386 10.023925878273289 8.283179984880828 18.583826116309435 10.64699540403569 8.48186349407848 5.657051723981243 19.672789696609883 20.06240201764538 18.884239010608802 12.457819273042853 11.907521459872772 18.088709096983894 12.129877203116159 12.399638635745964 1.5907720871635707 15.449805992538938 7.338025226408222 16.22286769091871 13.447828833612464 19.061617509165295 15.5172922666676 13.313284834419765 19.678544498334794 15.90865959815821 14.175831658912083 18.47342371442372 8.82113150357016 20.302083387358447 0.5188545560858839 9.268883647705914 19.577141626806124 0.06468846094963436 7.972420691735608 20.398833440471233 20.390242052080495 1.2895143389939494 16.26637562452691 8.812927850047414 1.7250997711141285 17.11049483924052 9.078240535244484 0.30907774824403994 16.46246743223852 8.778909217155826 5.512120511746061 1.8861362653397362 5.4564295404436365 5.697804699316874 7.145463846705155 4.615820346640255 5.402575207989589 1.7516371617633302 4.490214656509653 17.097883252481672 10.07139278895465 5.7265583008431165 2.7232864559786765 6.5505357095195365 7.7232500213059305 17.157002616301064 10.780641490902518 5.057613618067946 9.223865588822386 0.45999436241509606 7.640478830539118 8.910657443879332 19.947061097967367 7.4275103525207635 12.101225637081495 5.972300578755825 2.551315838475736 9.028875764419801 15.167718672526698 10.5513065200353 9.138176182996489 15.212369403640553 11.529745255860144 14.30662075201477 14.315763132060018 13.793055715812207 13.796973878688743 10.5384908622933 7.835978832399587 13.255430710695919 10.101166745396657 7.172339995186391 5.408350416812817 17.139146405275184 16.854814304448265 9.947868622852207 18.521849758725903 19.118981862529573 9.74785865226406 18.712982641546898 18.185969327554563 12.48451175763925 7.469263275673844 19.967733488560754 4.534987830213397 20.02352649535475 0.8393174244800234 3.8927968533295694 19.29138102909713 1.064240380691475 3.915387511164594 0.22308835807290697 0.39903835974732804 11.34410188248596 12.625116665031591 15.613348478437665 11.168702872466051 11.805200268919913 16.10050672942024 11.68739009034575 12.346804658207681 14.743128584978797 1.082190464369603 9.098647633559773 0.2681411090235703 0.18884320639002064 9.036732497271187 0.7107384201248825 13.230370793964745 9.392244557021835 0.39844451318635316 9.22380436752744 3.3516618273030527 10.064025826462832 9.785570969950713 3.9192444527461836 10.634016489507164 9.689718829163802 2.499134888083543 10.162367633244209 20.274492990436176 7.12989323069059 13.276776535533712 19.691747890944786 7.484711449098518 12.598056852665518 12.409434042937303 14.738434952366282 12.201710189185976 8.620427691639293 16.262069726782382 4.353629947485423 11.45144321962438 9.850894091657954 1.9144898877389989 0.36165255563371873 4.463562986109885 16.15989138551773 0.8997489647210886 11.476462322158923 5.1345075645199545 3.4699821833350977 5.319069361683427 0.9348981508593424 0.304667774298106 10.676565289494542 5.306478182022894 12.234810502653374 2.7694881265644904 15.105170916190337 12.38782292582141 2.089299132617595 15.75003522295347 12.579649649985127 2.4048745009652235 14.244399509251451 19.44867894291138 1.8924196109110136 17.290893588347675 18.667678883286957 13.595576225415156 10.748826824628981 2.9723550909167775 3.7879247750872995 12.358436704247396 11.049831524779494 18.52554344352097 4.966883658958171 20.101216318641058 3.5281220064353565 8.955818352451066 11.555050057771101 19.128409941951233 5.5900552202121485 19.257831759466796 19.152020954702024 3.625667936382437 18.92501239304275 19.23620023525259 4.564047538214368 18.65582235916577 19.53963338010262 2.9871706442936774 13.967638441899505 4.740466903150041 6.111109661496421 14.754536152937046 4.328733287540771 6.462132159617706 13.99524924592009 4.323590698765319 5.153220873675074 1.2120530752087757 18.348307794652683 19.356765372099318 1.245869677827041 18.84730216265813 18.558909049266465 3.3189900629002755 15.274672274797128 5.969117071418641 5.953015870847878 10.842638255584365 15.659162414155487 5.999197134335377 11.321796924027348 14.878243982924326 6.638918852323053 10.190019251461425 15.481967579483833 16.024714766277256 18.112585402012783 2.1266033083379434 15.447051034266373 17.41947871483231 1.742645794245614 16.384349059887594 18.573051168398962 1.3481990316192258 5.668459291939489 1.1989292702822134 2.901828159139139 2.0292655307936784 11.305695723456585 12.508816611732758 3.1379791008436624 7.687782484433958 3.1611819716281455 10.880452608762596 15.278978172541654 19.186651800543068 4.567884072697642 19.90347153596591 12.264604866193697 10.054230419271493 15.635286109126598 18.886626641111693 19.863289959383103 8.983878112634589 5.65827614988016 10.312563876844735 3.7891083867895863 7.511771261464591 19.997221745626344 8.259140423065418 5.089142584965066 15.293732504623609 20.317307082701653 3.248483538220952 15.167024831183978 20.287369869473125 4.226697795964326 15.501803279046294 19.39755916163158 2.944478994618093 14.48801944893937 20.205190484557455 14.206523934778275 14.845796696603015 0.3237484112229011 14.940199933409543 13.311835930439377 13.341079302325188 13.097520583932216 7.459182169106092 0.26803499211233084 10.455760485723118 7.962808948429107 19.849821274495014 10.485044671805557 2.3986095217824297 12.388537174262447 8.03682549401866 13.917253316159055 7.293170424311216 4.681408760625594 14.745883543251361 7.6416828493397215 4.331794352288065 14.125058798303643 6.423930071571484 5.055715757924624 8.337075131531506 16.01793960963658 17.57477673301166 8.851782965239723 16.770655430996015 17.230366134744525 8.4383759675686 15.375748632752755 16.859548751257414 14.814022844526113 16.56082964611821 9.74616486310389 12.384904710762324 13.748670276976453 16.501608246807244 14.434287559075214 17.056456842901635 8.924717934618567 12.209934249807038 0.8260589327045803 16.993541758795597 13.088765938754957 0.46066575594966913 17.174164985984223 11.805485968296326 0.061674332528466186 16.54087150396586 11.337796089106535 13.207555658048252 9.145624773881568 11.493522656350507 13.64432878329038 8.258773095295743 11.611087949744883 13.905478420431134 9.795223527453846 2.016392733176394 15.997042740961726 18.526482170043472 2.921867929684753 16.327760176259297 18.711186816895154 16.053611217491706 9.961316900641982 18.91638019045538 17.90112704926976 7.2899461027774 11.316776777841788 18.112911915585826 7.395838535935435 10.375805474523816 8.458048410344539 17.388051783426764 14.987993357663951 10.399702186651018 13.08874553165664 5.019268680333518 11.132684343939566 12.451697143548264 4.847093991847426 9.996621180727432 12.639401633852293 5.802778813050721 19.845352119963966 7.019409200411616 3.6756245130582643 8.730483172853646 17.162104390879886 4.6766539067181325 19.668483798865356 7.644703099890384 2.94323416162086 0.3298440114896779 3.549018875110212 15.884946549915844 16.317638255494916 14.425145179029965 1.8672311294604527 0.1464841924169754 3.6701554107097674 14.92367018377416 1.71391668123735 3.3911903767397673 9.243395181910119 2.151704039265749 2.5055631240528586 9.193479419430922 6.397951835416122 4.218351292753374 2.0374467365082776 10.074453853701945 8.961144605111356 2.1722539872692446 9.370368147627847 9.117748677582885 2.885073931422287 16.743799689613095 9.366409170554679 5.175648274723577 8.597714591214377 13.367649344331694 16.067304380461266 9.526972220099372 13.125947671885413 16.19754248190944 8.352604933349442 13.27830706790736 15.109354371344972 11.991843590111545 6.655060867090447 19.625445228518412 17.604938424321656 11.846034872648804 3.1721609905217716 8.606652900276472 7.759268549832416 1.2790332532992172 1.945994366118142 15.816093000200059 2.1436432354312096 1.3340609939063937 15.844907823021249 2.8318726261143286 1.507627446497589 15.157004945911172 1.5103415905735222 6.086825214501227 12.455533678031541 4.579577340032302 6.272019631712474 12.170058779698964 3.727968720236981 5.115018785628854 12.15473304886418 4.632635795652053 2.0196252175495357 2.2755955331378677 3.5689974243608797 7.19305319997641 10.532674839273442 11.332959606805812 8.900984479277884 14.194749039050352 10.26060740453401 5.640542381444174 17.561838632679766 15.97769681175883 1.878128519960817 1.3106336450404419 3.380986827582123 17.50490282838011 10.093412048036848 7.328556332789927 2.270514165657361 10.510512730503038 2.120930135006293 1.6574686065874296 10.850127660666077 2.7866096820510178 2.870768555503269 9.88521883102427 2.6232508600371296 0.1436720942691286 4.3837916387954206 13.294265418789914 19.65725989479195 4.069032554380404 12.958425801815205 0.8132330714134212 4.088643775861397 12.659318961808015 18.15552193686815 19.791865115279595 6.018726727423108 16.716719470148703 9.869423736928235 9.597764444155109 2.8842780545879902 11.052994625018364 5.035308659609335 12.85947178208437 17.378786960791622 19.368132125860935 12.241442809605845 16.632989145761073 19.156551330528018 13.58023008748206 17.27899625002986 18.72090059569323 18.909645848011337 0.6687651003099964 13.117397097691306 15.805930265239045 3.664992414835999 8.225529932140137 19.53877628197338 0.5709232674373437 12.407087226631045 16.939707833439865 9.154726339730187 15.664631516503986 16.546279385019414 8.51755550903192 16.268314298866862 3.7573549418109966 1.5944167949226813 11.162499114578203 15.99030839851768 14.117855092598344 9.530645497796124 15.95708564246039 13.57857711251852 8.726585417075425 15.575044354899866 13.556108897273386 10.281381830618974 6.063275423045384 7.092915568543287 15.92312823086375 6.44084755607486 7.811612757011131 15.329669404756832 6.563004446590179 7.117791821389623 16.756309240880366 5.6449707217785905 8.165573877289818 4.780036266783386 8.982000659589582 1.07253586615664 6.8492956288553675 5.326068996405571 8.219040474875875 5.744087998295949 4.078889182866689 3.861165850940871 18.760245481245107 3.778149774994276 3.1153272217136916 19.273810517447668 19.798211722855648 12.281359093910549 12.33368289399095 12.250666818044355 9.044895336597301 5.904161277481076 19.465494391923176 2.297145428958813 2.8636464781912334 5.209932199893263 0.6571248914309556 2.2230676620743144 11.121582882456048 6.831031275863183 8.579123724649149 16.347044884167246 16.987970620955526 4.016790382693265 11.603455694974965 17.572287067017193 14.363985105379045 11.970599800765328 19.054944388016196 14.984667000638558 5.880162529862296 19.84741323689381 9.675699152621199 13.596188438364614 16.590583195461903 0.5358944831791502 12.346927100797572 10.32597134043788 1.7551492233833912 12.007230542241274 11.196925889436097 1.5457397433112225 5.727415398972359 8.97651115014277 8.062273145617825 3.7423965387458895 8.47398635412878 2.9507439738008867 0.5498570198464708 19.908695753134623 3.3232551464481705 4.526253592134452 8.306974661516454 3.6314839594022943 16.22158204372485 3.8732468531435225 7.311128670828672 0.27225518004393257 18.551256387398233 19.619894497776652 7.229255392387732 17.447089518852895 11.455096090222815 16.83918246713875 2.590232174962993 17.64395679630049 16.448162056319504 3.2031797799610104 18.29141280454966 7.7737984038329015 6.546250218873326 0.8745298726230546 16.967951257508226 5.2628273987264915 0.9408794713755535 17.477455281146046 10.851556157548146 18.002305442716963 16.380900260272313 4.834421183793631 0.27965683460288787 15.063030258169267 15.80144070360968 17.32132057193577 15.605206046209863 15.59890025283044 16.533790240850454 14.219237557028702 15.284304425201945 17.395153453640486 9.945134071677959 11.283615243079444 17.598326524467502 12.776802626809134 14.547424512135176 6.473294842396169 10.705196448430893 10.893268266504597 18.058771883755366 17.038274118302713 14.808451706686037 2.4608919858406915 17.237059662991943 14.002126438052342 3.0285766467753987 19.43788358790259 10.225772487709811 17.96283811457519 1.6148300153674648 12.103694895977643 7.571155917562082 0.7592318078515038 12.316847037880837 8.115821371597143 4.973699629795478 3.1364893826666465 13.519110828027769 4.031422272185327 12.567242134209431 1.856084772360642 13.419748666330626 11.39183408544542 10.404722332836581 3.897306822057248 12.601791351657216 0.8961899667749023 8.118147780805087 0.4111765018252619 16.21509258646059 5.8491029262264265 13.262409938319749 17.974817081286268 8.489597784339976 1.2578404816987896 16.66684452186614 20.259779472550854 9.666128223511327 10.82845532225524 5.549098173893364 18.522441564577043 16.126484965575603 0.07368186917718218 9.859138559377332 9.871382818366504 5.597707882080382 5.233298327464268 7.053407426204887 5.2575011460662004 4.665042267776733 7.730310877323021 5.5511796979215235 6.110966811808215 7.459284204597669 3.8468808821201694 6.6856715145633805 11.191089459317922 3.469553634270477 7.238295736941405 11.851993745356872 3.5488352112253745 6.8670702114879845 10.310176246341847 18.347185404245344 13.34852789321027 6.367606480221287 2.9874767507684066 13.745731654819052 9.876137672273966 17.688199385448033 13.056930865383105 5.780555482985371 12.685950225109467 20.31636835617915 2.3546934462079276 13.891152637413802 5.718885231876568 17.034478398016066 12.527509513789564 0.005281357043996774 1.3900907230408508 11.3091853372685 8.748298569682893 15.928821811293716 10.73566424621562 9.380836989063589 15.415460846074307 12.146039624981869 8.720993872137036 15.514802600673132 0.7520791198919949 18.31714615552524 11.509215714954962 1.5747974106023626 17.87410805110032 11.816607836878159 0.04463440543519993 17.676812224588105 11.801363734436638 16.486180480480886 3.8540233665305204 3.3349484137828314 16.839243688433697 2.979783274703543 3.0913488811932273 16.631499427584057 4.384240594958357 2.499155295181858 4.769424575659436 18.937419908818445 12.240442861788395 17.841456693795852 19.097493188003572 7.90613843640755 5.773555848263227 18.809079667513593 12.240177569510296 3.213526178806862 6.975044168674178 15.472335429079017 4.209127284314863 6.75736165094499 15.45105082553617 2.9199496624431154 7.316903879651898 14.602625713078034 14.999890695981763 0.1541409357048718 16.88377197695766 15.547678436059064 0.7310496050780897 17.42515188816396 15.420358549669976 19.69925770312481 17.03113163389236 2.1887429227079984 10.652056364417883 18.73185920748854 2.8057719473690743 10.11726794596742 18.153685298019774 20.35375416029276 6.1877791298669615 13.184311973067139 6.513904968043593 3.263686826465842 13.188740313401556 6.839847142335389 3.8502480533421917 13.887152846144005 10.505125256547801 5.454103131235693 16.412714926545846 19.462821062043876 16.09103783580195 12.265319114634732 19.730011200285954 15.204369821100958 11.943152253531267 18.47148504008377 16.179543421195355 12.178099176435188 18.1429103501093 5.435961220833402 17.03880470285891 6.252081896658436 10.79527338039458 8.419601437118535 18.730410303508155 6.032991289145495 16.569318999017373 0.4262022483148092 13.138436816054368 2.8478513840952 16.455243319434906 0.8967878947555402 2.3376127049180306 16.203664611404026 12.065574436324685 7.223725068744288 6.929699596217606 4.116111730193776 18.650312442620645 16.795735754825504 6.527679759406414 17.359379810293785 17.731442026778133 9.54837926623211 16.216133348474667 2.514827946688 7.963115054903836 13.034789163711016 2.4487497623430943 8.908596326949487 12.872675174694361 12.178099176435188 3.754151027375496 10.702155790781918 16.624458978665285 11.674941760373423 12.843411395710238 11.396915452925928 6.97343200790727 4.198882920960588 16.571216859160696 10.674789871941114 12.755579244561233 18.786754301956666 9.536359485324406 17.87574061896554 19.177815526972548 8.864047631327212 17.30958649040448 6.084702876276437 0.31252042572982913 6.340444632363638 1.268741953618817 14.15946516606322 0.14138853996764777 1.9512185832868558 13.465501380753505 20.257820391112585 8.263262656925106 6.0091557983132375 5.259786741077513 7.439672983116676 18.315166666988656 11.880665718489851 3.5206530084519607 2.7695493478594364 7.54738164802477 7.615194435726476 17.957103719948595 12.752722250797094 16.39598110592731 0.30571261773184877 9.906258549387331 15.22424633486005 10.184244042638198 9.25490478535994 15.530352809589383 20.3723654339563 9.705554737456467 18.219008419727015 5.459082463224624 4.922600255613994 18.73640999041285 5.985116236497827 4.26012462300477 18.0313243365213 4.602882246308362 4.566292319029049 16.634233978758306 19.433475654666488 12.51387757211495 10.447964974166677 8.132391935429158 2.5227050866377017 16.41816362179603 19.794926180026888 11.66737072689845 18.452179925077505 14.198442723845423 9.989254218235613 17.441946930077442 14.137772420554068 9.74824638713205 9.138788395945946 11.494053240906704 0.5772086537184526 7.274681593237565 15.721914241475002 1.9355683795888607 7.817000230966367 16.09934352481627 2.681737603808748 6.415379497377378 15.568636526028865 2.314103727658818 19.451862450248566 18.60641677414446 0.29990883897098064 18.64486374737046 18.89919741367391 20.28732905527649 19.283973252408682 17.753400064565383 0.8427927533231173 10.121267737237217 3.8544927297917715 1.3389770638905467 10.210079429105354 3.0519427743464043 0.7014878824585622 9.954113194936685 3.569221902442348 2.225108371905843 8.208592040538447 2.300696264065673 5.801207466480444 8.414111927671721 2.963763702526041 6.52916947758343 7.259743597270774 2.1704173484208686 5.739700472158162 16.177686375248662 7.307353357640342 17.409662900542656 18.49054526991025 2.0516276291275717 17.423090771234115 15.352790647148055 6.880824595752488 17.630039155249463 19.73197028172422 12.94501833822206 15.289487828174028 19.95946861374306 12.649625590108252 16.196562941190304 19.779335156914005 13.933436145123078 15.378748476205102 9.128931767459662 5.877305536098156 5.630746974252836 1.4932690121229517 16.79151148547424 18.825017611297834 0.8765522160660997 12.92742741947428 3.690338030943588 14.067837294627571 2.2240063885968175 0.6230715664722329 14.690457864227037 1.6910933824815308 1.1294431005186547 13.642777843818418 1.6281354434690332 0.02423955137890018 10.540123430158522 1.9747765375820252 20.02930170417798 14.506345023226501 13.616717979269795 4.165945864279712 12.567282948406062 7.091160558088172 12.70217386827012 12.461492550739605 11.304695775639136 4.291184226640639 12.494756120993525 10.980386169212565 3.378517568685973 12.469757425557296 10.486962939047194 4.809953072913599 16.170911218607987 16.73155543062392 4.959271811286569 17.052130538058794 16.58454269436058 5.374311376822915 18.760816879997936 18.300371520710073 16.13148470466285 19.15034757264017 3.6139950761460917 8.675873777761934 14.416961932605535 3.1015932445475025 9.803753694549636 16.502689823017956 2.9929050389202736 16.720331526550513 5.575688622998185 8.186960516324241 7.465202263109101 17.78927574340366 5.18044394282767 0.5383270092983327 10.766703442753174 6.188860706077671 7.963074240707206 9.465465225777093 8.506147941073674 7.1958081582489735 8.953104208375132 8.630692462091885 8.029642195411679 9.172684586247643 7.681966461414101 6.806665200474729 2.909766520383786 1.6995562061528813 19.836638288983337 10.879330218355255 13.965475289478082 1.7009602145169733 1.947904470520453 1.8060935036176786 19.859126911326786 6.320649746997808 19.919940064306346 6.857682946262951 6.118272553005087 20.022220441062576 7.806735460513778 16.465855010558858 12.151059771167429 18.24735387928695 7.868344490327635 13.182556962612022 0.852631015420918 7.601950228919853 14.015860415218532 1.3354323509131811 7.615786241577619 13.238676482979068 20.331122688261104 19.604711616630077 2.6749828542663874 3.762028167325198 19.653933537766555 10.403599942429238 11.102583873924514 19.30607413988414 0.37249892838829485 9.11985060870936 15.49268130609936 19.286748617779562 5.888529440171565 15.74495385547296 18.38895873449674 5.631155116219141 14.655949460975885 19.102758219368916 6.398992597430201 10.211650775675631 4.5845566720212325 16.08314028875393 14.258602849678892 14.47485687052601 0.9586397690393493 10.358030891891199 1.0294462780639073 8.939880408666825 1.6844386277209151 16.489690501391117 15.86598835558094 1.3042421418480934 17.36491013393723 16.02865333625211 1.7522697818111042 16.203705425600656 16.81504086983177 8.228427740100908 8.61987669998478 9.516380936073737 1.4233379676161195 15.03182780484519 10.352337311461234 7.495098662141001 9.231191737117575 9.364715381394511 16.91856607958523 9.034140795785145 12.856859673500011 17.040906633985387 8.825784321986045 13.82756411906336 15.95508574682549 8.84833416562444 12.