-134616.9695156085
-134621.47679589843
-134617.69193812154
-134619.0099876227
-134620.6410575638
-134619.39199259426
-134619.44192561973
-134620.40194024926
-134619.63101834254
-134617.78673591613
