0.36033933672326973 -0.42243147806832404 -0.16784932767822705 -0.41887307129310436 0.46596668234679745 0.39938436644087344 0.20668455537786987 -0.2511612976340062 -0.18070664325686944 1.1004995159331885 -0.3069503795791681 -0.40319345577431853 -0.771246359091762 -0.7848109851500742 -1.4680824215927493 -0.014429802272084827 0.8398971274909407 -0.3599811820529026 1.5602652116755968 1.4791466498267107 -0.22867082984097392 0.7740953985047829 0.5344850389331698 0.5334632825368748 0.8148818363935255 0.6692987763126667 -1.0444024158293044 0.9084419664398742 1.3761917088290234 -0.9631067049726058 -0.47706922001786223 -0.2574931533893049 0.4105054160546995 0.5471513215469286 -1.3972459583961614 -0.47715432353250087 -0.7394520973993006 -0.11418706226808077 0.44691017993597876 0.631677366415467 0.6159779534023392 -1.2545579604749102 0.37044505769870395 -0.049143551604186334 -0.40149395658470854 -0.9618409508863047 0.40912113411266315 1.1437364722449528 -0.4471750035615911 0.534443387061957 -0.20679742680665034 1.0994294227974615 -0.44490317680827896 -0.15547383683200963 -1.2637614813510494 -0.563933426101274 -1.0666486288220145 -1.3717357299401989 -1.1039422230661504 0.03460087790332106 -0.042135238607153236 -0.08873982583956976 0.2906372442414414 0.14410596131470021 0.9080087355571975 0.07351169603590565 0.20439010291673831 -0.4242135096694114 -0.07046236768662058 -0.37858157076290927 -0.9115530012650301 -0.15914382948442915 -0.1713092612023695 -0.39067886824707554 0.3989423938074484 0.3847401341651374 0.3177718956747043 0.08878944813058257 -0.030047454204683736 0.17318668073074045 -0.3070503954921422 -0.6611296102383131 -0.7051654083022888 -0.3692587507000866 -0.0003093037103026931 -0.1510512822842818 0.14727433174035282 0.15163106604715176 0.85938660367412 -0.10514783488394794 0.7096319287140747 -0.48166403847739636 -0.05286085255477348 0.43194507398571413 0.37596804439946213 0.15041956223755384 -0.421125614772707 0.5605341706117378 0.6277775171404285 -1.0051475840937398 0.22846128493332912 0.745565152275574 -0.2888986642837799 0.04877536963149019 0.020706893530048207 -1.0579143342728103 -0.08824077471596416 -0.8322882047954312 0.8150931810733834 0.40906791227722455 -0.07492863098809031 0.2075780137264167 -0.1343725360770202 0.731349008676192 -0.6288069868462074 -0.5754514540432024 0.1542322511154247 -0.48352731693838014 0.4805350670792756 -0.7757254779090382 0.001744236384616351 -0.24200791326951226 0.5823605224582099 -0.5775348189347924 -0.017127146598589854 0.04511540428139972 0.24494642707254585 -0.5348413938313241 0.07486872428443235 -0.4799303436157412 -0.26888339750411755 -0.0899292181619806 -0.8394482128789801 -0.7558999585426788 -0.6542591083707249 0.10586928643100478 -0.6466969797527508 0.04655239383824241 -0.10500642421007722 0.3180665440969877 -0.00161311012339077 -0.05265799251534802 0.0601725557248383 0.00585105946413831 -0.14904453626689815 0.45196548297169903 1.327191881891553 0.42346660420105775 -0.32997126595437365 -0.5540195094216717 -1.57312844079151 -0.6191478664898885 -0.28428764787432975 -0.37698183037595717 0.3288710909116594 0.3016492790812289 1.1406799448068161 -0.19625796072790713 -0.23447072435220262 -0.4964113719899 0.43208879865243005 0.25228718370833325 1.0709397999982007 -0.8883639647430764 0.475830976735387 -0.7729908525866945 0.13871924308149014 0.27561197447720276 -0.6103282113157296 0.19679172174419013 -0.9873630064168093 -0.014968191274058091 0.1649195556259418 -0.1350929591828125 0.4507601498096882 0.008482583549714422 0.16464470469800033 0.39024460892313434 -0.3219463387673681 0.32402044768757743 -0.8588129905588372 -1.5985810765366597 -0.34073287534625185 -0.08254243877960624 0.6382174815268299 0.9002884840948044 0.3199195381453264 0.1876113407965027 0.17314528596984374 0.35446925109573785 -0.7382737608204833 0.9283834425588077 0.18437612168865666 -0.20915358574365267 0.24129494636288765 -0.11448479601415767 0.1786397334255117 -0.10786857624922068 -0.28529654875481836 -1.4240188556146316 -2.4302491312495884 0.8108503466366294 0.2074602572016298 -0.3478566308752267 -0.25791172898396225 -0.5006871165471183 -0.323987537567113 -1.0750419950920325 0.43542609055577913 -0.055590335670794584 1.5289270636839476 -0.010916389802187652 -0.07215518200801123 -0.016948197818564357 -0.3993429716799768 0.1899551584383309 -0.07179934133048925 0.009347759763487127 0.2539825691328852 -0.01702610224435132 -1.0779506840983952 -0.07552229870803122 -0.22031217346363346 0.9035900376642114 -0.1903516225458012 -0.815130462069222 1.531237199874363 -2.6038353614115928 0.13849941376120017 -0.22998106401196525 0.5332380538999462 0.6172377939513692 -1.2933363667946887 2.1627718700643785 -0.5419245259303506 0.2964296825535024 -0.8866855485993892 1.0174937643639186 0.7789558119208778 0.7121955756761928 0.35831253610122804 -0.08564267497148477 1.0385361868565146 -0.856139557491732 -0.6613723223767384 1.7501504361079405 -0.14076352720502852 1.1480009039482617 -1.1992010809711604 0.965384188152873 -0.19289804311673875 -0.4292279321648672 0.058463543453531566 0.7518808100809568 -0.34954224610776574 -0.9467177220916213 0.8215502495526367 0.5253856477350629 -0.4962725324191904 -0.2842321120460459 0.560670439079286 0.14044342486144845 -0.4940994360272717 -1.1108790593952995 0.07021322779029197 -0.37742123190622096 1.125003928832456 -0.19210228668832077 -0.05937885617894935 0.9040376667245914 -1.6920859278650406 -0.6968075232558968 -0.04322872878164813 -0.03360277565610987 0.1737322688215653 0.16627606965383623 0.7909921742601216 -0.3592211639584265 0.30512926721002936 0.029034182448820965 -0.2134542700015356 0.08728329589870129 0.01333194122221575 -0.29775380068156465 -0.20202083135361337 0.08992536150723868 -0.403504302146518 -0.09417950879790232 -0.2752188528038421 -0.5643399175110732 0.012508931100288135 0.262259978650329 0.0713519693804255 0.20667401385490855 0.5921312286917285 0.1106646509371191 -0.4460354906405092 -0.5925423480872183 -0.8457327603361112 -1.1161055979015617 -0.04693188866484821 0.09387611862487058 -0.05244176273948388 -0.07063360315716222 0.27876851782831347 0.5567227672854477 0.31725047595359557 0.9972784657583083 0.12385081061008993 0.34151474781759894 0.03438850478219884 0.24596535525536348 0.006618276647466022 0.4994871827017462 -0.20529101746445289 0.0760707150123335 0.5280477679482584 -0.5194037191200152 0.41998815873415407 0.21583048354319603 -0.6249505892145947 -0.08794458363178402 -0.5654017831166843 1.3543748700642482 0.9870099939527647 -0.7019114201413654 -0.3211572672071695 0.04578903330965662 0.23734881723094609 -0.1196362583081101 -1.0723847599748435 -0.5324536103254378 0.6212016636951238 -0.6346493045595973 -1.083677045059211 0.19690047940791253 0.4915733271713082 1.5059771397559933 0.14653333980927022 0.3540285640138935 -0.07994151082164942 -0.032167842981796216 0.22480517623798055 0.05678615575110865 -0.5624293307519217 0.3192525939852889 1.5290985562648052 0.37779249920271063 -0.37383145767243364 0.3935806152749028 -0.12423184809859251 -0.562323915522309 -0.5901975020041255 -0.3707659313732324 -0.27043145871752783 0.17199703129801347 -0.48165735360917694 1.0648789385161015 0.6419733490248363 0.9261735793916823 0.6797747361433261 0.5368643377986237 -0.8190164273871895 -0.49963245003035883 -0.48684583978865187 0.4736846198163455 0.025367018009878887 -0.1921297974921465 -0.007875546093334825 -0.21803366184210193 -1.6231353688372563 -0.6060586374060981 -0.604018724157934 -0.021093844555821736 -1.7623523774907712 0.33694821149283904 0.7863058245280459 -0.07113985336961942 0.5870407015426986 -0.06867185144510109 0.3866229530101471 -0.07661758865473901 0.42449067459019796 -0.8114188175455895 -0.18553826031755788 -0.13601341411455287 -0.0995716263477511 0.4693636238434884 0.47887027778234303 -0.7165564237480497 -0.40426946244731665 0.21284414722136247 -0.1051527199799544 -0.34349218325894393 0.19214728099364328 0.7911233005213472 1.1940861283420985 -1.5970355864264107 -0.44422877644907366 -0.771348174776949 0.423810874914354 -0.4712857805668657 -0.7949719848434761 1.1103481265924944 1.245943993553654 1.732135744698075 -0.3876881610498678 0.26707539776110134 -0.3781797073388003 0.04157936610368323 -0.36542960676198355 0.01881816114776759 -0.16987509985900423 0.12335895857533594 0.05829899285120928 -1.475016429708421 0.2455562927424029 -0.7045925665179543 0.3702522249616075 -0.11155476685155628 0.9292491329932125 0.8658876380174313 0.08691974191169546 -0.6268922863219978 -0.7368069464669698 0.7256607000421631 -0.27374895312653497 0.6700449104500719 -0.13196829751090178 0.8858586818227195 0.38937300495145843 -0.6068752197701226 -1.2310403369689444 0.799852709974545 -0.7204516450373979 -1.49529292056927 -0.6006654914149848 0.8589104353686497 0.8805616950898383 -0.29743266989672 0.6397819978004723 -0.22024249656796266 0.3708854876702322 -1.8543364212992517 -0.28164532515547624 -0.26542166420776225 0.9967305636746382 -0.6455314986897398 0.015822311744237264 0.9636654056895532 -0.20396741355702294 1.4677096116343626 -0.39623862172304014 0.1820510730999058 -0.5815315987990114 -0.032559421993260056 0.13524902514470252 -0.817312043101573 0.23725985706156558 -0.8333264162519584 1.199225506451193 1.289099960115838 0.34978161581208145 1.0899497654418002 0.7672863460027496 -0.2612616192928017 -0.679140444993437 -0.14779138058608743 -1.0428705525658104 0.2815813046867602 1.2870477055724996 -0.5347359786017114 -0.3539686573102355 -0.9215553638933807 1.1517742549477648 -0.07859373854450336 0.17905985168206584 1.534770666948918 0.2632133437025338 2.130870907590724 -0.609875182938711 -0.8374923747041899 -0.704795940778012 0.5099693131799926 0.5737961778279665 0.5584713745454382 -0.10630380286526207 1.2848327001990518 -0.28037031509779453 0.532559796885999 -0.7222830418191818 -0.6000134596532828 -0.005781639678783591 -0.27930382150649313 0.6708177840603544 0.42675607358560697 -0.06915727572195186 1.0293650618802077 0.252798576127113 -0.40407662971022024 -0.22134909936858008 0.41148423502820103 -0.19380898496678234 0.3868543522946628 1.223371764680093 0.29382104128606173 -0.09976882996022172 -0.08487365801594415 -0.49032839902061354 -0.12886960398092 -1.0655106585628293 0.10282767139120357 -0.2707507897301595 -0.17514123335395 -0.3039421888804637 -0.5686562854982401 -0.29454429260533144 0.39265218992336254 -0.5565625875584996 -0.7724061837278181 0.07873592054932246 0.9313898334852992 1.2074293824182238 -0.12858961084665596 0.0269310200628891 0.28050221268996856 -0.030404837544102475 -0.0128215772447005 0.44089122743540843 0.2989128539866723 0.20482204824783437 0.6224676748917409 1.1527888122552081 -1.7437391332649583 -0.9504648478388792 -0.026117780132974375 1.187679453484806 0.23511812812821445 -0.5280799067377745 0.5686226040468272 -1.3319350530034932 0.46906614720772766 -0.8623297454628438 0.1453724867319496 -0.5379691408270283 -0.29543672251261377 1.026479769912613 -0.35367735132206185 0.6389764711800415 -0.5332372825689977 0.0684435374843789 0.23707782295774654 -0.1403943167910679 -0.19212825483024976 -0.4889790840815707 0.48300461166569075 0.05926572763985278 0.35196062574127124 -0.6235611650662357 0.6029162351223745 0.794659852919696 0.6223301208726121 1.4371700482846086 0.24258101216416283 -0.35542775835426527 -0.07951316503497918 0.3525612354397476 0.05604927758508411 0.047974213886433505 0.36333184369269045 -0.7375613081344912 -1.6624524212693241 -1.3333679287952778 0.1559536046819056 0.7160512019768571 -0.018288771006858825 -0.23900177945333675 -0.10637476531251358 -1.009596621004029 0.36209385752053125 1.5249894191924382 0.060405497671250814 0.41004493147851323 -0.4175417540761906 -0.14804694824031922 -0.7614674253281273 -1.4550407579174425 -0.6409140545223865 0.45421082736245 -0.4866018420986458 -0.14063420071601587 0.60297099961971 0.27229679406104074 0.8385395850217816 -0.4674489233192788 -0.020798681912906115 -0.3040620022877796 0.10852549310692923 -0.5324284135144574 -0.4294891562460538 0.4120833020647806 0.6253686505886197 -0.7794132111732706 -0.8883086860251087 0.6156498806389591 0.6388139774602482 0.21627322750756944 -0.28642757703546806 -0.22267064639348103 -0.33698600670931 -0.8768711336121285 -0.7387967232034889 -0.6857299252854965 -0.3293020078014909 -0.008310062527592138 0.5770023434700902 0.2106844205658823 0.19631503921808774 0.03590339876482849 0.6239766553370997 -0.10394995792110484 -0.021384122102730913 -0.12890277121170057 -0.4038447162050722 0.19388971760604673 0.23229299997459346 0.11575106432109096 -0.02797257395352602 -0.11144858029099515 0.19844365552531631 -0.37545433798783723 0.03965181006366719 -0.18455249936552087 0.08997472668793537 0.21100040914440435 -0.1239639391491865 -0.17896034998972404 -0.11083511507671234 -0.14553883710648483 0.04891600897441253 0.3807130152836153 0.9063488313562714 -0.362251209034002 0.3809927513075632 -0.3894174850361487 -0.1366952706729259 -0.21990233961972452 -0.29680069273967596 0.4315866622050309 1.459688541102099 0.1903922459757495 -0.2847396478100838 -0.2941539991454482 -0.31780429157453655 0.6501494570777255 -0.5837790000722913 1.0279203590138812 1.2715023016387328 0.9317991531085759 -0.9037090797405791 1.0618877170982617 0.18160061582604853 0.016839697265158098 0.23694566825525645 0.7666983347097635 0.8619237682736769 0.26160280468230435 -0.4766843258746177 1.2820062864938502 -0.13115068670561283 0.23222666551303234 -0.1727681051360831 0.9334965954156568 1.0666170042531309 -0.24054187024694704 0.14187270110880726 0.9408759185988634 -2.1506426909010123 0.018841301076219164 -0.9381644332049713 1.0696776454563255 -0.4881861558666302 0.3815658502022138 0.887453537113665 -0.28627382506642307 -0.9349654666516994 0.47060572378070564 -0.6620827181802017 0.016429349200616866 0.04703370435003512 0.34530738209081174 -0.38046336116665447 0.2588450394315091 1.273926080588877 -0.3515284232998591 0.8124544578989557 -0.4322098976113266 -0.0022196333591381124 -0.1615994901137733 -0.6238738112106481 -0.23286609886924414 -0.5550908881089796 0.9410630949090051 -0.26620585067195446 0.28369475148533724 -0.3752687043395924 0.598148381420086 -0.6944968728448491 -0.4490979316159169 -0.05546923671189801 0.4772368559439781 -0.7929333571468925 -0.30527402031800976 -1.9867034969104684 1.0005543082961026 -0.30537429334129984 0.8233500217655368 -0.6349172135090033 0.4078744061897556 1.2811992172115225 -0.49748326489784006 -0.1277563163120832 0.6639537099506694 0.5565314772102479 0.6015044423765125 -1.515807495582854 0.7487792883374976 0.11032423687856484 -0.15125414232370726 -0.046849870474003186 -1.4874682823185286 1.9725089505776416 -0.03832126417770174 1.9297257939738446 -2.171391750522906 -0.10015218144156945 -0.35720464774903 0.27865950305427495 0.03967109333737683 -0.24333897337610993 -0.27681602208763295 -0.15245304772781487 0.013808366638002025 0.21352368978689032 0.12474555451021742 0.12340935219729714 0.010897620749110264 1.537760088594545 -0.6687701575027062 -0.5012519879116528 -0.47927934029530367 -1.246859306279072 -0.6264024911697729 0.5178471732661727 1.1632935684412742 -0.14634307817533507 1.2647518702887768 -0.1829869546506139 0.1601481023792274 0.07171758024996036 -0.8757694159075176 -0.23208654039074225 -0.9771986642892977 0.07413236033904007 -0.06356641189773568 0.5172560766493931 2.324643382892616 2.1830123654809697 0.6476112640369039 -0.46595125572782975 -0.07427377101291079 -0.035566584250700035 -1.6662594537202402 -1.4884532719396173 -0.48339567645652237 0.4550654620532615 0.8479706485276944 0.2714766121525905 -0.3100349320417628 -0.7988414951012113 -0.06883768759900404 0.002634095188737399 0.1455419224302784 0.3843706666408606 -0.11138198871911786 -0.31413404181180093 -0.15109293415549463 -0.14506138324943404 0.15854476244784954 0.21029155600283783 -0.02243853150917426 0.1839284926282768 0.6548774586810141 0.33276862619385267 -1.34195027114765 -0.04326549555685452 -0.3045150306647981 0.2620002972310391 0.6972379259250959 0.6109262499110446 0.7973425419581818 -0.8769870903647025 -0.1013703701193867 0.16016969964578223 0.460055201958369 -0.04427645331987213 -0.02884443503551807 0.07965226171600476 -0.03966569402073814 0.29012019539570677 0.7884005022735454 0.3235604773320234 -0.29445713220816383 -0.3973884190567672 0.04606954066455291 0.29261699367563154 -0.18297872712049776 -0.5577640640657684 0.09217636232494447 -1.1208423412555988 2.5801429028906595 -0.48545564430934457 -0.32893742537322057 -0.7936316687654977 -0.43645761714408704 0.713463643755339 -1.1987598796686838 1.3440320933773433 -0.31328609198920887 -0.6940011641553532 0.006168590704557118 0.5460809713008853 0.24518939632128744 0.14332023218861123 0.06539240936288093 0.5393973886331226 -0.005461023114571241 0.4996383635676298 1.5811757365760188 -0.5235434523200015 0.24291345580291718 -0.2844948787891294 0.6190095411398112 -0.5128366074254588 -0.45783299749606954 -0.1294992671451189 -0.5428061572043555 0.6080741251742302 0.2440282861336507 0.2532534042763445 -0.4595060143231183 -0.3325979049439433 0.20733555869830742 0.25698818872842843 0.14828194706926073 0.8440648857153851 -1.4356338141457403 -0.5446329260004491 0.3417356055791534 0.28671605481016427 -0.2679313180034934 -0.0183767027349748 0.2531148218159512 0.13902674701957993 0.5457768097969052 -0.8498547529242848 1.7515218625341704 -0.04671874421277761 0.07347055838532508 -0.4958475290666299 -0.29382335527890685 0.24708995577810997 -1.0777771346350085 -0.4927154111955514 0.2274834944010921 -0.039770852140034736 -0.01885132837854818 0.5332665931450364 0.010787834644123357 0.5194757100085311 -0.08341661385444345 0.19525831581879918 0.13526779419777996 -0.22775834532903358 -1.1242691075489606 1.0021612477719062 0.7450342194727686 0.6475341309420655 0.19723549414982805 -0.2679698845509127 0.07538783001269597 0.11491391313177628 -1.7910698000301217 -1.5017577023580073 -0.7396837537941325 0.9979983746434683 -0.38148974554863974 -0.511565454022519 -0.5059244536866577 0.1932909076797832 -0.7584834029991389 0.14517322623694995 1.023956746380443 0.6000684812609343 0.07929616392816667 -0.9677310911184948 -0.24104426380466232 -0.9671168545732635 0.00741686128936142 -0.5208823605480707 -0.018334793753445842 0.0057929525326932485 0.07620132705292684 0.16289481188642913 -0.5791034489734931 0.17806200654517076 0.2787327794943716 0.8429960781312387 0.5645965136065696 1.186501116905989 0.0887681079743439 -0.40036292830405884 0.21734923418056765 0.5585811606504252 1.2044661860248418 0.8401778919561531 0.14494748337938906 0.9136510214446393 -1.151228923967256 -2.506246826932142 -1.718381628336776 0.4212675396672099 2.1999762470288178 0.9064868995960323 1.025807940656569 0.4365211233921708 -2.251175395610452 0.6142622562628131 2.4480131401012293 1.004279836776806 -1.0188392226482195 -2.7998264416313585 1.3296287734678198 0.5952155240440071 0.20302253314525034 -0.6741908142976454 -0.41184573213267783 -1.604274013156379 0.006837848857439837 -0.17361168408330102 0.8567730773106728 0.6009506267555715 1.7942571966191678 0.9043883651957909 -0.327732606431842 -1.4857423007663573 0.46675935345142194 -0.12284859459782067 0.2501246288393757 -0.6304470935527916 0.7954203852348044 0.09514881468970711 1.1220399611081255 0.3757991229217657 -0.042004112345927665 0.827669217966181 -0.1775444434788039 -0.1699990270313782 0.024414681398938598 -0.2963535778999283 0.08283297343683153 -0.3117174619505083 -1.251483949535277 -0.09614460294407313 -0.058673859692124755 0.7603078578023873 0.1547510997333722 0.4343698813771229 0.2645138076815122 0.19506419753012214 -0.2357066536418328 -0.11060448712314501 0.6713276338172374 -0.24637184666516276 -1.7248759778118679 0.6585834467776915 0.272185465294157 0.07958361326159843 0.08492662274106665 -0.036893273481923554 0.04384167977529869 -0.4826264023906655 -0.5740615156742113 0.09914867987771957 0.11498101892428585 0.3089802655250033 -0.28031452215919467 0.18333893867339393 0.2535799343778278 -1.5165775409796591 -0.030705142393340667 0.004958115336223719 0.5316154306948586 0.3386993898559909 -1.4046126831738777 1.0878568874685135 -0.018054543508865678 -0.8122886217450528 2.3362141184493503 1.6692018241780155 0.39099742792875886 -0.22548034792813423 -0.5325909072342504 0.37886002123527657 -0.21517690911959714 -0.44248428295414116 -0.20710261675189492 0.009497912188106222 0.6298336283385088 0.3646122530670108 -0.6723691877078742 -0.39133912753889377 -0.10222217659672071 0.151603555243326 -0.23307332978404374 -1.0744095037143562 0.10650949111816495 0.7403905500531701 -1.7391705400576691 -0.47596827364419964 -1.0514269267762537 0.870307878572314 0.3730760675636478 0.04206813281464368 0.28823326278563904 -0.9262316863231275 -1.4947100514826064 0.4698313075085263 0.0030948368752398317 -1.3203494050484228 1.1556386229991775 0.9648157172439125 0.07873309233584505 -0.8411847359541126 0.726434344983394 1.8074808943982936 -0.3886384407782791 -0.6517782509304001 -0.9017858945759373 0.5957426001920707 -1.7713517527759042 0.31814213452992945 -0.22999803329282972 -0.1509929182425206 -0.23985075771719339 -0.02600413737324554 -0.14103940657423453 0.26407826280599034 0.6306985474419654 -0.05572557569707822 0.1421051288345875 0.11665429286165072 1.1847100864438371 -0.6060738069147498 0.02962013685927802 -0.1459548415979809 -0.39029268855225036 0.8578786516700257 0.06541632062228088 -1.0601041428352775 -0.1155597742458913 -0.38417629124186736 0.30608854579950506 -0.7391389370342561 -2.079839137824889 1.0464911800375332 -0.529968639120055 0.6520631291606706 -0.23334432405724329 0.9652584612082861 -1.3820553666986521 -0.672770536911351 0.46575456633599144 0.17360551343571393 0.5327883679570373 -0.6286331802725045 0.2571311420641959 -0.6381493472930558 -0.4821916288460922 0.49626301933749367 -1.5674614723137197 1.004773488583773 0.5978460196883187 -0.3224556743036189 -0.7663700048360673 -1.195845020014734 0.6828140371902821 -0.9497997034510546 -0.37486247004010925 -1.9139083673256134 0.3448558963756899 0.03525522365786832 -0.554333955338297 1.0211915249304802 -0.2269427914062737 0.5425685872722527 -0.1605949601086589 -1.2361480905091549 0.6809057644239757 -2.9708708792081158 -0.2611659742552018 0.04268108380829424 0.3398957241569372 -0.16412611319036896 0.6828765149971013 0.689738018003625 -2.7118646316083943 0.028204744568990133 0.8650635994542392 0.604696724061565 0.14521693499069185 0.16148559024372833 -0.4166750352005211 0.09734350834818074 0.030373212975218656 0.08504900725154385 0.06939818808816435 1.3300977426844383 -0.8113450268848609 -0.385579085126665 -0.5260147966786296 0.45509708662214526 -0.014011998008375869 -1.0204880711055522 -0.01818386999787836 -0.19816469083231678 -0.24127823419233935 1.1518778704051646 0.2657399667791294 -0.3968230334716005 0.33744957660928976 -0.0978800975779411 -0.11043299454228724 -0.8304087283845312 -1.9475725923472782 0.18792193005838603 -0.16053505340500096 1.3902872676901412 -0.7948164331022183 0.6959292344160014 0.6937805635041149 -0.32913102944126543 -1.7595701867599438 -0.223054512095461 -0.0480253788393431 0.7908538489100445 -0.165749764836721 -0.7406839129238728 -1.9078220519222175 0.5938322705432354 0.3477327037028527 -0.3812015248842596 -0.42010900058273454 1.8430888734098905 0.780171943716166 0.836950900378423 0.5999013595554508 -0.11748681606527507 -0.13036958556521416 -0.7838859022326435 0.2925190346451865 1.4646078327805874 -0.03870770098284301 0.1175328388118621 -0.12906500782117772 -0.0466359546909842 -0.18556268579759008 -0.9204019670152278 -0.395670407924396 -0.297860501462758 1.0285870460636029 -0.5840186268869232 0.10009047496569858 0.24821764162464996 0.3064752397149625 -0.15304183035174934 -0.4658707801988815 1.098369099853747 0.193792272796234 0.8818963547408618 -0.026956473984185835 -0.18747790054243196 -0.8432215638784833 0.40071285544430985 0.22808590387178138 0.19178089879316004 -0.09903889377273266 2.1316244979272962 -1.6959716360726922 -0.6066942141075681 -1.291186924551854 1.263328764689005 0.9731062393874789 -0.6881693879649244 0.4976077062908463 -0.8032751053925328 1.4198734659876902 0.5882293225341612 1.3701473024071562 -0.4922834658644553 -0.3181146237261038 -0.005712991224377258 -1.1044160773787752 -0.22327691251891224 -1.4697785783482493 1.6410726700419673 -0.5737627534868699 0.2041065102380485 0.006549628193059688 -0.0230126588450894 0.9253045465231677 0.3126317462346616 0.1555270586674483 0.5725425079265237 -2.1699879281968433 0.8669618449182165 -0.07340268126186714 0.6963313549504266 -0.6778127273209488 0.48954704076989886 1.4526100369887627 0.0591813954561626 -0.8241828020794773 -0.3897530139986965 -1.911269901261502 0.7935105698066011 -0.3779969019040329 0.3070352259834906 0.059469359010226604 0.6803894869091895 0.5987088819092463 -0.37911558888950836 0.06212145192109302 0.05660129343381219 -0.7522363936481625 -0.2928129117365216 0.2495229906996348 -0.1574283894552192 -0.043347513747699545 -0.4354068072820695 0.5867545377608475 1.411523551361098 0.3556064500239747 0.014626491663923198 1.0507011043538228 0.12797048920541831 0.8095532250917605 -1.3331414146067684 0.31773384334791727 -0.2407961523495982 1.454426007151579 -0.3495329901363851 0.5742219525114757 -1.8148381060943133 0.5378814662092285 0.017257244418550928 0.4477622435236288 0.006452697603879209 -0.16930380073656648 0.21038720104043768 0.21206973094918316 0.20942612267874902 0.04632845075289441 0.5816544975301208 0.02892799588825986 -0.14276821633988315 -0.6382156817546171 0.16202783590044353 -0.33560223898790587 -1.2188250258496753 0.7518563846009245 -0.5725378799408333 0.04130194407258048 0.2992303852270911 -0.1537385993084578 -1.399861027421505 -0.3914957077214161 -0.25429521527729754 -0.1744938295779382 -0.6905042067456882 0.45150679816772565 0.25325186161444774 0.6429246571945121 -0.3790893636372633 0.35098412076061486 0.7197818726638829 0.010320150979085452 -0.560176530162003 0.2182846015106434 -0.5505757738474454 0.8433172089160831 0.0966228281320723 0.5157193282898925 -0.25704680988050566 -0.34404522754893646 -1.039902471076422 -0.6232744870637524 -0.33348647819648375 -0.2524036546815395 0.1359733049052368 -0.2526527945778681 0.5082916683672536 0.913262013536337 -0.17389913341673277 1.1052259748745805 -0.16843656764026474 -0.19005363168940817 0.06794088681634751 -0.28583365220521095 -0.016509824729565116 0.1300325139407696 -0.15223501817973784 -0.0838624431426104 -0.06692452973669119 0.5931707256998365 -0.34046625194842656 0.24217246387183455 0.7525292422982329 0.0831348209479665 -2.2134863657001107 -1.158504888803379 -1.4170025721977983 -0.8015126141754713 -1.2235692254028798 0.43595393803479116 -0.2103730599730506 0.8382904451254529 -0.16467812903909704 0.05101968558097666 0.6448892371200506 0.13849452866519377 -0.24738126176628364 -0.9048663332734739 -0.4235360239864125 0.5508002311534256 0.3231650416658176 0.6195129631387911 0.4273836798672769 0.7654978866437591 0.29358912778091373 -0.8422196049765303 -0.7441412753448539 -0.03226683045350572 0.24808728669437272 -0.39749049185227026 -0.20254276529535442 -0.28068501812473595 0.11525998361728536 0.6382668467075266 1.064685848668689 -0.7849937905848416 -0.307671831126225 -0.12112929791386881 0.7692339566474237 0.3516304960953622 -1.0679647765302769 -0.4299846078252337 -0.2848170380152385 -0.36229106113300186 -0.9252276705386452 -0.6906852124082428 0.5207705175605547 0.29408380802914513 0.3341793904984503 0.48855665183217156 0.1255770492725773 1.0504182830060813 0.7357916178285779 0.6283526729176082 0.9304650076781845 -0.3211189577700663 -0.06563717838383534 -0.9550838346681294 -1.3956703863789255 -0.47275902267828257 -0.5411555089748099 0.07688549760414501 1.4291224953897839 0.8102271112303335 0.20199254921883925 -0.3849499361830983 0.09479528800503029 -0.3969107080894003 -0.8037867549216285 -0.8142038364898945 1.5753084791619643 -0.9627812033123869 0.49430666694207137 0.019805207651385246 -0.23011964647235852 -0.042502649248900994 -0.34904885141111497 0.6777715896703682 -1.0528914271369223 0.1735389218638366 -0.003185596816833223 -0.26143594008713683 0.8195797560898272 0.12438174341289547 0.739642873253868 -0.8193866662424146 0.2613567501097693 0.41353134736521685 1.178937445626118 0.21114953312775894 0.490263093000317 -0.38609407708987054 -0.5142481430610046 -0.3505292926113834 -1.0343532591234186 -0.07744059877666663 0.4908940417160965 0.8396281901002701 -1.2790515747409004 1.085620541938827 -0.9773704139804714 -0.11722122110871426 0.16828512966406503 0.061963071966357794 1.355924216829239 -0.7382272238532641 0.561238395767614 0.7903982494298646 -1.8780219378416496 0.13231719620988824 0.5571300300261953 0.8429904217042837 -0.27506870037922304 -1.0642963265397543 1.1256611028004808 1.1007630540072204 0.6502222192971898 1.253797171049486 -0.20394890161426166 -0.4672638038916662 -0.843854826587108 -1.0894869668727687 0.11897317080281446 0.058209775571512655 1.2214899742763479 -0.2309925359956151 0.11090556330333158 0.12550557260469355 0.35486880052700176 -0.00011698519383850818 -1.1528379203255885 -0.2350980735235564 0.39175976001608015 -0.21244151246630508 0.06366771336229034 0.5216776027558564 0.16501468644290934 -0.4907127789432258 -0.288351019310426 -0.17982398354159998 -0.013630446299241043 -0.3903870480382696 1.564970073350434 1.1055075106707413 0.0774925350605246 0.10430477015736231 -0.17060452182586103 -0.12450284237179204 -0.5415663712599834 -0.19237122407899127 -0.25834393142537443 -0.10883865347197384 0.7041750193645615 0.3365692308868655 0.41799144001909944 0.12846799766712713 -0.18664820555228498 -0.4306752061343551 -0.7192450263238065 -0.40424760807044574 -0.33479182727146856 -1.0531637069617021 0.23617819396161263 -0.266816744783076 -0.2825477823650876 -0.0010988894911335915 -0.10796627816934953 -0.1383315207247682 -0.027663784463855583 0.08593938027629715 0.371942725290153 0.3025183119497435 -0.12858241175780435 -0.27958227197886043 -0.4747868517415888 -0.19993900912392018 -0.2716671308968418 0.4076383789195496 0.22902795607007656 0.41506449618029156 -0.8899354229952545 -0.16089783606105837 -0.1824249114995568 -0.023854180909778273 -0.14897511648