17.72405927089992 0.0 0.0 -0.16956607504469956 23.215327314210136 0.0 -0.016642891655375025 -0.00659335004877477 21.61583730936704
17.594411913207722 0.0 0.0 -0.25666728098987424 23.1347162805577 0.0 -0.10354311410922744 -0.12685570989422768 22.03939376131287
17.578192631771685 0.0 0.0 -0.26170413190181685 23.112669003692368 0.0 -0.08098273345457216 -0.12761767850666245 22.0681200629346
17.580413059337936 0.0 0.0 -0.2610691339311684 23.106517037518806 0.0 -0.06204127768640357 -0.12557689048285087 22.073861154826357
17.597579038799715 0.0 0.0 -0.247245985495136 23.097121647268285 0.0 -0.039717735890570954 -0.12251434526812362 22.06065943704106
17.617513144238394 0.0 0.0 -0.22531037560166484 23.084755998289896 0.0 -0.02251518179833667 -0.11178312090019261 22.040618846770318
17.653149524980545 0.0 0.0 -0.1947318924100604 23.071995609467624 0.0 -0.0033894047087962647 -0.1006406054419141 21.998489933704032
17.69606315069198 0.0 0.0 -0.16098108648184492 23.0733481642296 0.0 0.010582245764113804 -0.09033840238428256 21.94225119976367
17.74592487314909 0.0 0.0 -0.12551692662778352 23.078876978253234 0.0 0.021295109847778906 -0.08619195710888514 21.887202631171526
17.802330930141913 0.0 0.0 -0.09271453948417908 23.086062750208033 0.0 0.027504601287069254 -0.07993246587633719 21.832600629416742
17.85736165557022 0.0 0.0 -0.05710784257451356 23.093354381323277 0.0 0.03269682919134907 -0.065607946722565 21.770838177111745
17.897850591312974 0.0 0.0 -0.025379152138481798 23.097068800985845 0.0 0.0390352121396536 -0.05424838514226962 21.704168578716914
17.93041668589226 0.0 0.0 0.010650667511420004 23.096653854348343 0.0 0.042674391712423584 -0.04416261629735264 21.64231775695562
17.947511226430912 0.0 0.0 0.036828293036636234 23.100098119449413 0.0 0.04375603237003856 -0.03144403966870696 21.585687122163176
17.962093762761512 0.0 0.0 0.07227946530135232 23.1067786961979 0.0 0.04233665499882889 -0.015860528792518414 21.53380222120535
17.967469144843967 0.0 0.0 0.09801254418512384 23.10896824545594 0.0 0.03995965137813298 -0.0010600806795457941 21.49883146550989
17.960380816138073 0.0 0.0 0.1274648226521319 23.12194281736473 0.0 0.03848909608898389 0.0125004250480321 21.479412110586452
17.954039685650372 0.0 0.0 0.14700767694610525 23.138304552961287 0.0 0.03883458784006175 0.027308094361874216 21.479620596602476
17.95068681885824 0.0 0.0 0.16692343672856277 23.158647782866307 0.0 0.03773234369324002 0.03792980124824746 21.507471806520453
17.94236709478851 0.0 0.0 0.184860208177606 23.17669384735116 0.0 0.032080952365481856 0.05041805153635571 21.55707225443879
17.924320564452028 0.0 0.0 0.19465812132994903 23.185287893324343 0.0 0.021580881959600243 0.05931157674777176 21.63015591683192
17.891805800061952 0.0 0.0 0.2049685272455097 23.183361040847675 0.0 0.012560047671643492 0.06534087478182625 21.72285293338862
17.849819292819557 0.0 0.0 0.2106635672938564 23.171921413166636 0.0 -3.569963858563911e-05 0.06381310397182992 21.8102300985946
17.79512882833622 0.0 0.0 0.2155346003688083 23.148117121445697 0.0 -0.012171868118581976 0.06945438781699627 21.904967216626957
17.739485315700634 0.0 0.0 0.22169034799031082 23.12047435445337 0.0 -0.022777499145359613 0.06936138758438948 21.990238526534135
17.682515155803713 0.0 0.0 0.2167345882646861 23.09126057417611 0.0 -0.03640829870579985 0.07258672471457425 22.055860899228023
17.630398080084593 0.0 0.0 0.19984056223775884 23.05650569719223 0.0 -0.04733761884502713 0.07810266349477474 22.107496629337433
17.58869097840821 0.0 0.0 0.179545357507591 23.02918969446748 0.0 -0.05920353383332203 0.07994060049686531 22.138410439865996
17.55549780883703 0.0 0.0 0.15506771214545748 23.01090386392875 0.0 -0.06994110327040672 0.08026373598200288 22.15366890592324
17.543030922985427 0.0 0.0 0.12452043349135056 23.007158764567695 0.0 -0.08134703438988342 0.07911906946266428 22.140182176353758
17.54174396401471 0.0 0.0 0.08949797770440304 23.014311995444235 0.0 -0.09162052872404884 0.07316661407390536 22.116086995766864
17.560102708904118 0.0 0.0 0.047570318238421255 23.037063623605896 0.0 -0.09982918390011991 0.06391877386041099 22.06902784157214
17.598694544354924 0.0 0.0 0.00454046319244357 23.07266289020926 0.0 -0.11713691088722637 0.052127333240379284 22.007941870275786
17.65226791575143 0.0 0.0 -0.04171230908492063 23.116615710411864 0.0 -0.1341042793559636 0.033998268005737256 21.934478632629826
17.715827919423983 0.0 0.0 -0.08363642360760064 23.167838529970872 0.0 -0.1491318394257111 0.012206205436483125 21.84786762335043
17.790343478841077 0.0 0.0 -0.1239986940475223 23.214565834509283 0.0 -0.1616786415357077 -0.0028998259870510958 21.751541357839834
17.864832579397756 0.0 0.0 -0.16521397169427043 23.259297425072702 0.0 -0.16703618461736902 -0.019847828995710907 21.655857241741433
17.9331239564902 0.0 0.0 -0.19868108031395493 23.290842002855168 0.0 -0.17013154697522254 -0.031113970064510495 21.57084021794028
17.99001421062866 0.0 0.0 -0.22712392940918685 23.307088840679437 0.0 -0.17148081545571242 -0.039434111149698026 21.482109839096424
18.023239130832344 0.0 0.0 -0.251658487983812 23.30554412501408 0.0 -0.17248239848206554 -0.046590073153201614 21.413915062037574
18.04366960449246 0.0 0.0 -0.27698837209856375 23.290281546399548 0.0 -0.17464467810188253 -0.05185750644331133 21.363361981996587
18.052262384001708 0.0 0.0 -0.29197729179884363 23.258300176136807 0.0 -0.17615397634308866 -0.0560883792270933 21.33737698811757
18.04780618273016 0.0 0.0 -0.30013501681880256 23.21314245564608 0.0 -0.1763631620176391 -0.0646291939403567 21.338264158159337
18.037311011156884 0.0 0.0 -0.2928177069551208 23.17285812763145 0.0 -0.17111996956284536 -0.07269036337496224 21.366836288017343
18.020550381436703 0.0 0.0 -0.2769758593626821 23.138494813067016 0.0 -0.16532052919930032 -0.08220975084011424 21.42922758883736
17.998735580199536 0.0 0.0 -0.257705896037297 23.10913457222117 0.0 -0.15444715001369222 -0.0931254578919524 21.514878569469417
17.920937534559023 0.0 0.0 -0.2037969016430052 23.070232200114006 0.0 -0.11946096960537045 -0.09998091050530479 21.72329453501655
17.87575320944655 0.0 0.0 -0.1719647458748758 23.048209655119166 0.0 -0.09978245441513064 -0.10010421797290069 21.83104961908795
17.818531690375654 0.0 0.0 -0.13303315760034465 23.03120058814153 0.0 -0.0843172919588576 -0.10008669250484004 21.93516488533483
17.761446699024518 0.0 0.0 -0.09578748204783923 23.01514054102238 0.0 -0.06397673100988631 -0.09328311806327676 22.01971802222225
17.71726886896233 0.0 0.0 -0.05479951261170048 23.00817687130055 0.0 -0.048881944809467066 -0.08722211464190155 22.085355204991778
20.041292398938744 0.0 0.0 0.0 20.041292398938744 0.0 0.0 0.0 20.041292398938744
19.881207826576464 0.0 0.0 0.0 19.881207826576464 0.0 0.0 0.0 19.881207826576464
20.411211609729452 0.0 0.0 0.0 20.411211609729452 0.0 0.0 0.0 20.411211609729452
20.403102498188645 0.0 0.0 0.0 20.403102498188645 0.0 0.0 0.0 20.403102498188645
20.389206304697282 0.0 0.0 0.0 20.389206304697282 0.0 0.0 0.0 20.389206304697282
20.5180757718932 0.0 0.0 0.0 20.5180757718932 0.0 0.0 0.0 20.5180757718932
20.528619098592436 0.0 0.0 0.0 20.528619098592436 0.0 0.0 0.0 20.528619098592436
20.530287065153168 0.0 0.0 0.0 20.530287065153168 0.0 0.0 0.0 20.530287065153168
20.523714684225418 0.0 0.0 0.0 20.523714684225418 0.0 0.0 0.0 20.523714684225418
20.508069560060445 0.0 0.0 0.0 20.508069560060445 0.0 0.0 0.0 20.508069560060445
20.462211063184526 0.0 0.0 0.0 20.462211063184526 0.0 0.0 0.0 20.462211063184526
20.425391442204496 0.0 0.0 0.0 20.425391442204496 0.0 0.0 0.0 20.425391442204496
20.298274080745433 0.0 0.0 0.0 20.298274080745433 0.0 0.0 0.0 20.298274080745433
20.292344650125834 0.0 0.0 0.0 20.292344650125834 0.0 0.0 0.0 20.292344650125834
20.28618820248385 0.0 0.0 0.0 20.28618820248385 0.0 0.0 0.0 20.28618820248385
20.405808181254955 0.0 0.0 0.0 20.405808181254955 0.0 0.0 0.0 20.405808181254955
20.430260401698558 0.0 0.0 0.0 20.430260401698558 0.0 0.0 0.0 20.430260401698558
20.4346340513256 0.0 0.0 0.0 20.4346340513256 0.0 0.0 0.0 20.4346340513256
21.834285541977966 0.0 0.0 0.0 21.834285541977966 0.0 0.0 0.0 21.834285541977966
21.830175422600682 0.0 0.0 0.0 21.830175422600682 0.0 0.0 0.0 21.830175422600682
21.83175819163087 0.0 0.0 0.0 21.83175819163087 0.0 0.0 0.0 21.83175819163087
21.83456600589839 0.0 0.0 0.0 21.83456600589839 0.0 0.0 0.0 21.83456600589839
21.845763924804363 0.0 0.0 0.0 21.845763924804363 0.0 0.0 0.0 21.845763924804363
21.862922495785227 0.0 0.0 0.0 21.862922495785227 0.0 0.0 0.0 21.862922495785227
21.88720908376261 0.0 0.0 0.0 21.88720908376261 0.0 0.0 0.0 21.88720908376261
21.89703167110407 0.0 0.0 0.0 21.89703167110407 0.0 0.0 0.0 21.89703167110407
21.90866298614368 0.0 0.0 0.0 21.90866298614368 0.0 0.0 0.0 21.90866298614368
21.923485239749663 0.0 0.0 0.0 21.923485239749663 0.0 0.0 0.0 21.923485239749663
21.939335684671477 0.0 0.0 0.0 21.939335684671477 0.0 0.0 0.0 21.939335684671477
21.94992716649667 0.0 0.0 0.0 21.94992716649667 0.0 0.0 0.0 21.94992716649667
21.961397082487736 0.0 0.0 0.0 21.961397082487736 0.0 0.0 0.0 21.961397082487736
21.974266672194894 0.0 0.0 0.0 21.974266672194894 0.0 0.0 0.0 21.974266672194894
21.986064678055136 0.0 0.0 0.0 21.986064678055136 0.0 0.0 0.0 21.986064678055136
21.99327524669616 0.0 0.0 0.0 21.99327524669616 0.0 0.0 0.0 21.99327524669616
21.987916269107163 0.0 0.0 0.0 21.987916269107163 0.0 0.0 0.0 21.987916269107163
21.979350477635546 0.0 0.0 0.0 21.979350477635546 0.0 0.0 0.0 21.979350477635546
21.96862088055897 0.0 0.0 0.0 21.96862088055897 0.0 0.0 0.0 21.96862088055897
21.96397047125196 0.0 0.0 0.0 21.96397047125196 0.0 0.0 0.0 21.96397047125196
21.958797764040302 0.0 0.0 0.0 21.958797764040302 0.0 0.0 0.0 21.958797764040302
21.953513400437686 0.0 0.0 0.0 21.953513400437686 0.0 0.0 0.0 21.953513400437686
21.94872910929696 0.0 0.0 0.0 21.94872910929696 0.0 0.0 0.0 21.94872910929696
21.946590175020795 0.0 0.0 0.0 21.946590175020795 0.0 0.0 0.0 21.946590175020795
21.955828021547024 0.0 0.0 0.0 21.955828021547024 0.0 0.0 0.0 21.955828021547024
21.97830111923138 0.0 0.0 0.0 21.97830111923138 0.0 0.0 0.0 21.97830111923138
22.000248214770636 0.0 0.0 0.0 22.000248214770636 0.0 0.0 0.0 22.000248214770636
22.02145022880053 0.0 0.0 0.0 22.02145022880053 0.0 0.0 0.0 22.02145022880053
22.044677933183998 0.0 0.0 0.0 22.044677933183998 0.0 0.0 0.0 22.044677933183998
22.070198033234057 0.0 0.0 0.0 22.070198033234057 0.0 0.0 0.0 22.070198033234057
22.093616241412533 0.0 0.0 0.0 22.093616241412533 0.0 0.0 0.0 22.093616241412533
22.11195381921361 0.0 0.0 0.0 22.11195381921361 0.0 0.0 0.0 22.11195381921361
22.125958494032687 0.0 0.0 0.0 22.125958494032687 0.0 0.0 0.0 22.125958494032687
22.142442364072902 0.0 0.0 0.0 22.142442364072902 0.0 0.0 0.0 22.142442364072902
22.16185099654368 0.0 0.0 0.0 22.16185099654368 0.0 0.0 0.0 22.16185099654368
22.175844558641383 0.0 0.0 0.0 22.175844558641383 0.0 0.0 0.0 22.175844558641383
22.173740550060966 0.0 0.0 0.0 22.173740550060966 0.0 0.0 0.0 22.173740550060966
22.1557707504197 0.0 0.0 0.0 22.1557707504197 0.0 0.0 0.0 22.1557707504197
22.13457773240235 0.0 0.0 0.0 22.13457773240235 0.0 0.0 0.0 22.13457773240235
22.12179492775736 0.0 0.0 0.0 22.12179492775736 0.0 0.0 0.0 22.12179492775736
22.11550248157283 0.0 0.0 0.0 22.11550248157283 0.0 0.0 0.0 22.11550248157283
22.119206192854094 0.0 0.0 0.0 22.119206192854094 0.0 0.0 0.0 22.119206192854094
22.132569504896647 0.0 0.0 0.0 22.132569504896647 0.0 0.0 0.0 22.132569504896647
22.156873026544698 0.0 0.0 0.0 22.156873026544698 0.0 0.0 0.0 22.156873026544698
22.190738251170494 0.0 0.0 0.0 22.190738251170494 0.0 0.0 0.0 22.190738251170494
22.23426043067153 0.0 0.0 0.0 22.23426043067153 0.0 0.0 0.0 22.23426043067153
22.27905422300424 0.0 0.0 0.0 22.27905422300424 0.0 0.0 0.0 22.27905422300424
22.308840549708044 0.0 0.0 0.0 22.308840549708044 0.0 0.0 0.0 22.308840549708044
22.3194928869122 0.0 0.0 0.0 22.3194928869122 0.0 0.0 0.0 22.3194928869122
22.315279048802083 0.0 0.0 0.0 22.315279048802083 0.0 0.0 0.0 22.315279048802083
22.30529188734883 0.0 0.0 0.0 22.30529188734883 0.0 0.0 0.0 22.30529188734883
20.643029327747307 0.0 0.0 0.0 20.643029327747307 0.0 0.0 0.0 20.643029327747307
20.673842787412525 0.0 0.0 0.0 20.673842787412525 0.0 0.0 0.0 20.673842787412525
20.692102576163972 0.0 0.0 0.0 20.692102576163972 0.0 0.0 0.0 20.692102576163972
20.67880646962688 0.0 0.0 0.0 20.67880646962688 0.0 0.0 0.0 20.67880646962688
20.617029793146482 0.0 0.0 0.0 20.617029793146482 0.0 0.0 0.0 20.617029793146482
20.58822297345534 0.0 0.0 0.0 20.58822297345534 0.0 0.0 0.0 20.58822297345534
20.561903815820667 0.0 0.0 0.0 20.561903815820667 0.0 0.0 0.0 20.561903815820667
20.54179614025765 0.0 0.0 0.0 20.54179614025765 0.0 0.0 0.0 20.54179614025765
20.52250498512712 0.0 0.0 0.0 20.52250498512712 0.0 0.0 0.0 20.52250498512712
20.503922927455786 0.0 0.0 0.0 20.503922927455786 0.0 0.0 0.0 20.503922927455786
20.491150706354965 0.0 0.0 0.0 20.491150706354965 0.0 0.0 0.0 20.491150706354965
20.48567160553967 0.0 0.0 0.0 20.48567160553967 0.0 0.0 0.0 20.48567160553967
