-134636.262572759
-134631.68155397265
-134634.86480301892
-134632.3340073101
-134631.63563898014
-134632.0037099544
-134633.03739178655
-134633.51714508305
-134633.99661701385
-134633.46639517185
-134631.184171509
-134633.7828168987
-134634.6924881551
-134632.40933032543
-134633.86692646987
-134633.6632089888
-134635.58378329186
-134634.25831555924
-134635.6369023622
-134633.28352120265
-134634.2196453256
-134633.61695548668
-134634.82670721755
-134633.20579038802
-134633.44955200554
-134632.75479394593
-134632.88000168648
-134633.27916547642
-134634.20708591136
-134633.14520356155
-134632.8976739837
-134634.2374230669
-134633.5306534943
-134634.00894621975
-134635.45917692286
-134634.00939153405
-134634.58876897223
-134634.82164426747
-134633.87033768895
-134634.4330511478
-134632.70623155788
-134634.56067335446
-134634.41260995623
-134634.45759323094
-134634.4279856126
-134634.3560762654
-134633.9216931895
-134634.1712491991
-134634.94515360953
-134634.445369061
-134634.89323986747
-134615.4405014184
-134612.74462063832
-134613.75804114618
-134614.8824537595
-134612.6599009879
-134612.7305141209
-134612.53736350042
-134611.9933898414
-134614.18445169475
-134612.95446653123
-134614.36044349681
-134614.88644403682
-134612.70622211034
-134612.87108744963
-134614.10827274536
-134611.99053155762
-134612.44227386374
-134610.90063998618
-134606.31056565943
-134605.79589349063
-134605.62221071054
-134605.57161182252
-134606.17081329811
-134604.28902732613
-134602.14246207188
-134603.15099854447
-134603.61781446062
-134604.22684781736
-134603.56714359848
-134602.11457244426
-134601.52159135498
-134601.7205954162
-134601.66287340425
-134602.21297302606
-134603.46585942633
-134605.37619245297
-134604.1850651456
-134604.2735478583
-134603.5988006422
-134603.6001425716
-134605.07187448573
-134605.72539410126
-134604.86756420464
-134605.23371160618
-134605.1161182911
-134605.0595440553
-134606.4868962432
-134605.50550326204
-134604.74998354286
-134605.19556940944
-134605.8060143567
-134605.31937889307
-134604.8617933504
-134605.6534220318
-134605.34323198398
-134606.25265384806
-134607.23298925874
-134607.90836641839
-134607.20837003132
-134607.041240977
-134606.4708650646
-134604.37980110125
-134604.26770462177
-134605.94845874023
-134605.3512124026
-134603.32768382865
-134603.51882883403
-134604.1080974742
-134604.23033604465
-134612.37536977846
-134611.94967679406
-134611.67132964372
-134613.73757138266
-134613.71737441327
-134612.4047075959
-134612.5174740197
-134611.2174953264
-134613.41615418997
-134612.83608068456
-134610.09115750768
-134603.93313181345
