20.407098315288923 0.0 0.0 0.0 20.407098315288923 0.0 0.0 0.0 20.407098315288923
20.61556397227934 0.0 0.0 0.0 20.61556397227934 0.0 0.0 0.0 20.61556397227934
20.452361487805444 0.0 0.0 0.0 20.452361487805444 0.0 0.0 0.0 20.452361487805444
20.68132694067027 0.0 0.0 0.0 20.68132694067027 0.0 0.0 0.0 20.68132694067027
20.42051772011556 0.0 0.0 0.0 20.42051772011556 0.0 0.0 0.0 20.42051772011556
20.45394690272167 0.0 0.0 0.0 20.45394690272167 0.0 0.0 0.0 20.45394690272167
20.42123422605567 0.0 0.0 0.0 20.42123422605567 0.0 0.0 0.0 20.42123422605567
20.661953763072447 0.0 0.0 0.0 20.661953763072447 0.0 0.0 0.0 20.661953763072447
20.524930204273005 0.0 0.0 0.0 20.524930204273005 0.0 0.0 0.0 20.524930204273005
20.603008184656737 0.0 0.0 0.0 20.603008184656737 0.0 0.0 0.0 20.603008184656737
