-134616.9695156085
-134616.87941082523
-134615.08046977536
-134617.5300071218
-134615.20107729544
-134614.12833665108
-134619.6072868865
-134613.48529083325
-134611.1087591807
-134617.45309237656
