12.543300098841748 0.0 0.0 0.0 12.543300098841748 0.0 0.0 0.0 12.543300098841748
12.497445306206288 0.0 0.0 0.0 12.497445306206288 0.0 0.0 0.0 12.497445306206288
12.536349356210023 0.0 0.0 0.0 12.536349356210023 0.0 0.0 0.0 12.536349356210023
12.629173917858944 0.0 0.0 0.0 12.629173917858944 0.0 0.0 0.0 12.629173917858944
12.74017201237435 0.0 0.0 0.0 12.74017201237435 0.0 0.0 0.0 12.74017201237435
12.569235073823155 0.0 0.0 0.0 12.569235073823155 0.0 0.0 0.0 12.569235073823155
12.480631758765272 0.0 0.0 0.0 12.480631758765272 0.0 0.0 0.0 12.480631758765272
12.590529164687302 0.0 0.0 0.0 12.590529164687302 0.0 0.0 0.0 12.590529164687302
12.502208959435889 0.0 0.0 0.0 12.502208959435889 0.0 0.0 0.0 12.502208959435889
12.629981442278892 0.0 0.0 0.0 12.629981442278892 0.0 0.0 0.0 12.629981442278892
12.525113865722263 0.0 0.0 0.0 12.525113865722263 0.0 0.0 0.0 12.525113865722263
12.628546842867046 0.0 0.0 0.0 12.628546842867046 0.0 0.0 0.0 12.628546842867046
12.586874666886413 0.0 0.0 0.0 12.586874666886413 0.0 0.0 0.0 12.586874666886413
12.402133611678106 0.0 0.0 0.0 12.402133611678106 0.0 0.0 0.0 12.402133611678106
12.566471710441133 0.0 0.0 0.0 12.566471710441133 0.0 0.0 0.0 12.566471710441133
12.717769295258702 0.0 0.0 0.0 12.717769295258702 0.0 0.0 0.0 12.717769295258702
12.580230847035534 0.0 0.0 0.0 12.580230847035534 0.0 0.0 0.0 12.580230847035534
12.553601591556767 0.0 0.0 0.0 12.553601591556767 0.0 0.0 0.0 12.553601591556767
12.573644707500366 0.0 0.0 0.0 12.573644707500366 0.0 0.0 0.0 12.573644707500366
12.25071643281145 0.0 0.0 0.0 12.25071643281145 0.0 0.0 0.0 12.25071643281145
12.258570480937834 0.0 0.0 0.0 12.258570480937834 0.0 0.0 0.0 12.258570480937834
12.2503079080066 0.0 0.0 0.0 12.2503079080066 0.0 0.0 0.0 12.2503079080066
12.520721694892927 0.0 0.0 0.0 12.520721694892927 0.0 0.0 0.0 12.520721694892927
12.522904550877387 0.0 0.0 0.0 12.522904550877387 0.0 0.0 0.0 12.522904550877387
12.37598008650965 0.0 0.0 0.0 12.37598008650965 0.0 0.0 0.0 12.37598008650965
12.425097785811818 0.0 0.0 0.0 12.425097785811818 0.0 0.0 0.0 12.425097785811818
12.593233260221988 0.0 0.0 0.0 12.593233260221988 0.0 0.0 0.0 12.593233260221988
12.577369056692758 0.0 0.0 0.0 12.577369056692758 0.0 0.0 0.0 12.577369056692758
12.468001886333496 0.0 0.0 0.0 12.468001886333496 0.0 0.0 0.0 12.468001886333496
12.290365564324548 0.0 0.0 0.0 12.290365564324548 0.0 0.0 0.0 12.290365564324548
12.573277987694977 0.0 0.0 0.0 12.573277987694977 0.0 0.0 0.0 12.573277987694977
12.37464285570414 0.0 0.0 0.0 12.37464285570414 0.0 0.0 0.0 12.37464285570414
12.557251326762781 0.0 0.0 0.0 12.557251326762781 0.0 0.0 0.0 12.557251326762781
12.307883446629882 0.0 0.0 0.0 12.307883446629882 0.0 0.0 0.0 12.307883446629882
12.184151760949865 0.0 0.0 0.0 12.184151760949865 0.0 0.0 0.0 12.184151760949865
12.176927962878631 0.0 0.0 0.0 12.176927962878631 0.0 0.0 0.0 12.176927962878631
12.606287532774862 0.0 0.0 0.0 12.606287532774862 0.0 0.0 0.0 12.606287532774862
12.620697028158329 0.0 0.0 0.0 12.620697028158329 0.0 0.0 0.0 12.620697028158329
12.63711104680704 0.0 0.0 0.0 12.63711104680704 0.0 0.0 0.0 12.63711104680704
12.497972895883017 0.0 0.0 0.0 12.497972895883017 0.0 0.0 0.0 12.497972895883017
12.722074681025866 0.0 0.0 0.0 12.722074681025866 0.0 0.0 0.0 12.722074681025866
12.531352335831542 0.0 0.0 0.0 12.531352335831542 0.0 0.0 0.0 12.531352335831542
12.507059926904864 0.0 0.0 0.0 12.507059926904864 0.0 0.0 0.0 12.507059926904864
12.559344222621819 0.0 0.0 0.0 12.559344222621819 0.0 0.0 0.0 12.559344222621819
12.57706213391191 0.0 0.0 0.0 12.57706213391191 0.0 0.0 0.0 12.57706213391191
12.606219268914984 0.0 0.0 0.0 12.606219268914984 0.0 0.0 0.0 12.606219268914984
12.28893413997595 0.0 0.0 0.0 12.28893413997595 0.0 0.0 0.0 12.28893413997595
12.581099226834441 0.0 0.0 0.0 12.581099226834441 0.0 0.0 0.0 12.581099226834441
12.737381131777493 0.0 0.0 0.0 12.737381131777493 0.0 0.0 0.0 12.737381131777493
12.578578755791053 0.0 0.0 0.0 12.578578755791053 0.0 0.0 0.0 12.578578755791053
12.682079996795714 0.0 0.0 0.0 12.682079996795714 0.0 0.0 0.0 12.682079996795714
12.479673948018151 0.0 0.0 0.0 12.479673948018151 0.0 0.0 0.0 12.479673948018151
12.41119630054837 0.0 0.0 0.0 12.41119630054837 0.0 0.0 0.0 12.41119630054837
12.563661779464775 0.0 0.0 0.0 12.563661779464775 0.0 0.0 0.0 12.563661779464775
12.70424193828156 0.0 0.0 0.0 12.70424193828156 0.0 0.0 0.0 12.70424193828156
12.71733272406181 0.0 0.0 0.0 12.71733272406181 0.0 0.0 0.0 12.71733272406181
12.644590966647117 0.0 0.0 0.0 12.644590966647117 0.0 0.0 0.0 12.644590966647117
12.740130736552098 0.0 0.0 0.0 12.740130736552098 0.0 0.0 0.0 12.740130736552098
12.797616844227168 0.0 0.0 0.0 12.797616844227168 0.0 0.0 0.0 12.797616844227168
12.485093780986109 0.0 0.0 0.0 12.485093780986109 0.0 0.0 0.0 12.485093780986109
12.661588667756641 0.0 0.0 0.0 12.661588667756641 0.0 0.0 0.0 12.661588667756641
12.498064972717271 0.0 0.0 0.0 12.498064972717271 0.0 0.0 0.0 12.498064972717271
12.617505560414749 0.0 0.0 0.0 12.617505560414749 0.0 0.0 0.0 12.617505560414749
12.659699505122818 0.0 0.0 0.0 12.659699505122818 0.0 0.0 0.0 12.659699505122818
12.647170176360632 0.0 0.0 0.0 12.647170176360632 0.0 0.0 0.0 12.647170176360632
12.714618044982956 0.0 0.0 0.0 12.714618044982956 0.0 0.0 0.0 12.714618044982956
12.702934870576929 0.0 0.0 0.0 12.702934870576929 0.0 0.0 0.0 12.702934870576929
12.714223807962734 0.0 0.0 0.0 12.714223807962734 0.0 0.0 0.0 12.714223807962734
12.678879533039593 0.0 0.0 0.0 12.678879533039593 0.0 0.0 0.0 12.678879533039593
12.187615225778542 0.0 0.0 0.0 12.187615225778542 0.0 0.0 0.0 12.187615225778542
12.139133068303606 0.0 0.0 0.0 12.139133068303606 0.0 0.0 0.0 12.139133068303606
12.552390834104052 0.0 0.0 0.0 12.552390834104052 0.0 0.0 0.0 12.552390834104052
12.65918091145863 0.0 0.0 0.0 12.65918091145863 0.0 0.0 0.0 12.65918091145863
12.812697865488035 0.0 0.0 0.0 12.812697865488035 0.0 0.0 0.0 12.812697865488035
12.76000557414344 0.0 0.0 0.0 12.76000557414344 0.0 0.0 0.0 12.76000557414344
12.57584820139595 0.0 0.0 0.0 12.57584820139595 0.0 0.0 0.0 12.57584820139595
12.56662411347714 0.0 0.0 0.0 12.56662411347714 0.0 0.0 0.0 12.56662411347714
12.752638369048743 0.0 0.0 0.0 12.752638369048743 0.0 0.0 0.0 12.752638369048743
12.361799195680192 0.0 0.0 0.0 12.361799195680192 0.0 0.0 0.0 12.361799195680192
12.655338555748775 0.0 0.0 0.0 12.655338555748775 0.0 0.0 0.0 12.655338555748775
12.762444022719533 0.0 0.0 0.0 12.762444022719533 0.0 0.0 0.0 12.762444022719533
12.487313679375152 0.0 0.0 0.0 12.487313679375152 0.0 0.0 0.0 12.487313679375152
12.671213871999383 0.0 0.0 0.0 12.671213871999383 0.0 0.0 0.0 12.671213871999383
12.665586601565751 0.0 0.0 0.0 12.665586601565751 0.0 0.0 0.0 12.665586601565751
12.522222441455819 0.0 0.0 0.0 12.522222441455819 0.0 0.0 0.0 12.522222441455819
12.65917509050934 0.0 0.0 0.0 12.65917509050934 0.0 0.0 0.0 12.65917509050934
12.543237126753953 0.0 0.0 0.0 12.543237126753953 0.0 0.0 0.0 12.543237126753953
12.528357722009469 0.0 0.0 0.0 12.528357722009469 0.0 0.0 0.0 12.528357722009469
12.671708652689194 0.0 0.0 0.0 12.671708652689194 0.0 0.0 0.0 12.671708652689194
12.51187914374134 0.0 0.0 0.0 12.51187914374134 0.0 0.0 0.0 12.51187914374134
12.262954184931834 0.0 0.0 0.0 12.262954184931834 0.0 0.0 0.0 12.262954184931834
12.766721891271864 0.0 0.0 0.0 12.766721891271864 0.0 0.0 0.0 12.766721891271864
12.455480495229436 0.0 0.0 0.0 12.455480495229436 0.0 0.0 0.0 12.455480495229436
12.440295226058522 0.0 0.0 0.0 12.440295226058522 0.0 0.0 0.0 12.440295226058522
12.420216655241965 0.0 0.0 0.0 12.420216655241965 0.0 0.0 0.0 12.420216655241965
12.41766284603445 0.0 0.0 0.0 12.41766284603445 0.0 0.0 0.0 12.41766284603445
12.63404763994788 0.0 0.0 0.0 12.63404763994788 0.0 0.0 0.0 12.63404763994788
12.62427691197284 0.0 0.0 0.0 12.62427691197284 0.0 0.0 0.0 12.62427691197284
12.664813473664347 0.0 0.0 0.0 12.664813473664347 0.0 0.0 0.0 12.664813473664347
12.471116094204659 0.0 0.0 0.0 12.471116094204659 0.0 0.0 0.0 12.471116094204659
12.648857193300861 0.0 0.0 0.0 12.648857193300861 0.0 0.0 0.0 12.648857193300861
