12.012367292257974 10.769715094765822 1.4084369948985445 11.935815531754743 11.211088738643864 0.969154319146978 4.926719782922765 8.167946158363769 1.6544738263373253 12.31553885564698 3.932061171684812 4.418565609318488 0.6083814130440718 3.4979250119638006 4.222977930877249 12.104284595382286 4.449045828558673 3.6425367188033473 4.514647288075616 9.223226538979425 6.452373917244985 5.27592525767452 9.699621076733433 6.846007760946837 4.426304825479473 6.9216438605428525 5.853506597325886 5.243714063020694 12.18871354834759 9.658591942110123 6.103005379591947 11.870402221739283 10.010331163481844 0.7090451593273066 11.65049308440639 11.233428356119902 4.7367013297254115 10.234918951751604 3.9898732418403737 4.503207798385473 9.424671938566823 3.5068056684337803 3.8767075883486237 10.765989734636465 3.933089722292917 4.245455524654373 3.167697550261594 6.041079107003965 4.458503476833201 4.142537747343377 6.008466526746976 4.582782494212524 2.7657725851944077 6.877478900894831 8.285276187488334 2.6878536049804027 1.3551405127785658 9.12763404892615 2.3401533262405096 1.7697969274460763 7.011403716050165 1.9213450792402824 1.2199751652434572 4.370712919441407 4.61802916749027 3.435597353772656 3.881248262984404 4.806316645273983 2.6280471501091256 4.27775452240889 5.378240956580771 4.038177490521013 2.2554107907727348 2.6767653276930266 4.162820263603204 2.960795815131199 3.2445879798674935 4.380935709021963 9.536909387851258 8.824550288637838 0.9630469863288519 10.01003012427947 6.664844877619267 5.226241245983007 9.420996751637862 6.699050456988808 4.4652768588865746 9.941217579937225 5.67997004045841 5.439477347663317 4.013442102726097 6.003072907704475 5.851436952809577 3.0903053886517404 6.0799507940102755 6.0450302465351 4.542618847296033 9.61377473085696 5.5592031471067616 1.5764168698222334 6.463399478031868 6.843273321525289 0.9377571846695671 5.846331829669348 7.278287512253221 3.369719941653539 1.8325636011406805 2.5077945320615296 4.8916988890468 8.757205310407157 0.637706394345154 5.28999884038542 8.030772628482836 0.1468005127067944 3.9312584004784865 8.802963269167732 0.5369134520709012 12.431451491860376 7.5142771603128296 5.259631510846124 0.1664081994213038 7.801581449076799 4.333233538746068 11.706762328649795 7.165548330964831 5.277618603187864 11.106164033317054 2.549300312088597 10.445897259414123 10.391910895788707 2.718321280920489 9.778016702351195 12.00441483999531 2.6554542608250946 9.996796942675193 5.647683586003991 2.47952193363874 8.427391777608213 5.297587536945219 1.6088413005777389 8.496542991053127 5.173333606166093 3.129064185957161 8.99779834960304 9.61140404713828 8.769673350705405 12.494142905754387 9.25098486209816 9.575166453152725 12.134940420823856 2.213603971543295 1.9929046063041744 4.826436098632525 1.9130288712747505 1.19698455049229 0.3216202491743815 2.248913361321535 2.085699940435406 0.0026880292111817867 2.0581172235180527 1.135733107449626 1.2915961544778336 3.0230733001219483 8.031675746089952 8.258132486074441 3.4361994321774003 8.517490302218192 7.499275373394615 2.4657368468301133 4.1069900348632595 0.8669301863314474 12.442251273245478 11.6947709337553 11.736602839584938 11.740516349215778 11.7337680537626 11.019264050232277 5.164929595099869 11.979717082100688 8.707709448217129 10.783776134176623 12.506811638854217 9.602711540169784 11.411806626825529 12.256660604983017 8.876993826351095 10.899500620888537 0.8639160313176957 9.849049410810936 11.693541690345615 2.7650074438883783 6.660329289583683 11.859288857851709 3.394116660345786 5.961015222473058 10.947064814863344 2.1247597769431987 6.389983542553347 11.825773159987603 5.515953848365955 2.093062857593426 11.308198968009098 5.2422339536090306 1.29607411261312 12.463148411210149 6.2506023918550175 1.8814950148262621 2.6672575062181045 3.5904694800930548 11.624904752204753 1.8866126812665893 3.7046135109925147 11.045379201038067 3.402922057015173 4.132264784562426 11.267044400384798 4.9409564285349505 7.967203183581906 2.6198062019441863 4.168991567251834 7.420240039471813 2.700384361779146 11.175327790062067 10.800559069708873 1.8522064090954666 6.681025734746772 7.325763903127336 11.93812349897293 8.077258098649144 7.730435850916169 12.01902778461046 7.020196569419452 6.575850163417985 12.476519569115514 2.241939286466579 4.373936547566809 1.363042791840836 1.3109379232302476 4.2869111314810455 1.4939446716723486 2.577597997111584 7.503075993324563 7.885445953537656 3.472487199363349 0.8770024563108172 2.3190554954742577 3.219300686868229 0.4113838676717227 3.1386347239325776 0.9632677484105915 6.98881323257215 6.306357360794369 10.571568583104419 2.0282516259827106 2.746644052543674 11.246812057325366 1.710216251976578 2.1075378259074893 10.926004613997389 2.7271643074901726 3.310164352784238 1.6081765056725004 9.729737540270753 9.852059802834658 2.111764918040799 9.029194229750441 9.428999377100924 2.2130269797387485 10.304785133302152 10.385476182838001 3.0860030367178375 11.607682801169043 11.355349233080643 3.9932599328670606 11.336220700429909 11.225526077057632 2.982696417103777 12.405261081253993 11.842681528520842 0.06244932820210341 11.329585294677623 8.118400122973345 0.632778131736319 10.79886572419553 8.771441956019343 12.304287515458318 10.767319324446941 7.353396793245085 2.6101604041681767 6.8261391735902714 2.6511644521912907 1.8924327725124521 7.295547093189226 2.681481608530191 5.913024556294889 1.595219276670397 4.998304396586855 8.315819123229016 5.299180536057772 1.1495633501386089 9.30849589305135 5.336308704350343 1.0530715054682491 8.059684935210667 4.375203420876792 1.4167532028640766 6.522164838994941 11.077477505991002 0.6042107657612069 6.983908802233503 11.430709380074484 12.338116795824895 7.760690290754575 6.076263063781216 8.412164211288218 4.712091374931484 4.354368999412616 10.34238994699848 5.480330876085245 4.286697895379365 10.904793893530249 9.621739726419726 9.620447766509544 2.9461954138161475 12.409513259987502 4.909159162784387 8.09711414270561 11.687056804194514 5.367002159692209 8.540557431099963 11.924551648265984 4.125378512808161 7.6954525869405 0.2883541629822433 8.238000489415802 2.8043432329983458 0.2929964383488246 9.02496713761713 2.295787673790906 11.939779214585977 7.844655141616222 2.585425016373261 8.364336608011335 11.163236048766784 10.581816459285172 9.084284403784554 11.80762300474458 10.44116843527686 8.537948424679403 10.284239207740251 10.091937873924907 8.910672587116487 4.222902671076656 5.773793925197746 8.556763374827666 3.6895866374741026 5.03604718658427 9.138785042714021 3.6650895723810644 6.465782705050647 3.400225247493922 12.405035301852214 4.920209810171466 4.059827226491614 0.2165086486760975 5.513921833749943 0.47513519042408586 1.6377034341051742 6.675594485803973 8.785916924333407 8.905517290775862 6.37889526526597 9.155756127747754 7.930727266894475 6.258291434815607 9.49443777371658 9.501236242370153 6.105012307607761 8.650562172966804 5.757199139166978 8.240847818538239 8.573383247458631 5.456109763594381 7.288121459530712 5.983530446150479 10.296845224339586 0.35146703175957544 6.5651256418334745 3.162466994120377 3.8920480443695067 5.706900505770623 3.6185288424141637 3.685698214443461 8.222409167392941 2.627194205702404 8.799250452338473 8.223237025199463 10.351910311773501 3.73770273665326 8.414472178506406 9.883154643779687 4.5644943626684125 6.513873717629607 10.353076838682693 3.5256707917824386 8.009323585313817 4.40457982970828 10.97148662015579 8.74437351440604 4.873699253404961 10.676242422429253 8.156719904775306 4.512690533260197 11.926081930878041 9.158917039372664 0.9759063775901845 6.244669410908265 9.752453456749755 0.28978786218354086 5.7775945451276955 8.436310063978489 1.11597991845397 5.63112642987352 8.758672876518721 8.877407755254357 9.146235762972733 8.009373758514213 8.23313368897745 9.38310344203926 8.838523524947947 8.865416360359864 8.147274799800877 1.0680456971262462 0.8316496461434352 6.397083050409291 0.86397874781819 0.1540517944939348 7.059193689426752 2.6500731850826913 12.256096156478568 5.478938569774273 6.248783613340685 0.44349220726473776 1.8556934465229447 5.34533988042151 0.6394185548086458 1.9255972579737899 6.313908427453871 12.176345854450132 1.304001478275588 2.1624649370403173 8.77331090773407 0.6600673354313592 2.273623662516253 9.71817261757962 0.31741448065123984 11.24059058047634 1.407358271090044 0.1884430147049391 10.001224727610085 8.898656105621797 2.3966483498856928 9.44721224884444 8.119177807579472 2.432509644868281 4.900704978517767 5.084226002263922 9.72954939076927 5.62224577340354 7.293076063069754 9.39317571201863 5.701970988831778 7.373792199205802 10.3800825637955 4.789044521037878 7.51199427969484 9.160309345683634 11.301187263253846 10.057393625452697 5.877188347912499 11.633521999372656 9.174633794396511 5.629997532864624 11.276213552757051 10.684194874691919 5.054159711926997 12.216873257069489 8.227213251330795 11.553094359138884 0.1268729718397645 8.85474201197575 10.953361551512963 11.530365899359783 8.798322248131159 11.91202089146724 10.725612851618294 4.830700820666132 0.15272220468345757 10.70041336171972 3.9413055838576585 12.32192339539729 10.816024958730745 5.518073666082659 11.979880145001975 6.136044432052295 0.6602931148331384 4.97647905441487 6.064723227690282 0.4070777527477903 4.06128224930308 2.274990882227027 6.176785070773334 1.9778150162852681 10.373760740545684 12.021135059027063 4.326309637091507 10.280576564111389 0.2582289191348551 3.6756761176644868 9.518771775908334 11.528710183746735 4.164802105018821 11.79755073476521 1.5661439070412817 0.9748539947118916 0.15080558842835456 1.4613195481152612 0.6926059102177645 1.5069520738748474 8.432521987348638 0.012261075846617809 9.168525207248376 2.56356204430098 8.585236666052035 9.269135017341185 2.2316161504852317 7.7063401714262945 6.776505335099155 2.7500809167707567 3.075479207934909 6.025675934482587 11.438862525138733 7.421268590079917 6.078734093900688 11.97429837645799 6.634490091380069 6.932029713024694 11.480506281466887 7.728102797097785 8.097515528308774 7.2438561534819 2.956593809598087 8.11974225608392 6.493214902366814 2.3318245749748785 6.501568740232642 7.3314460180721115 2.828739951690593 1.0315045552783006 2.751987498385781 9.494312340715592 1.8302807205226912 2.1517529587559063 9.403084919096717 0.9792767623267432 3.5069561880349664 8.840806405565937 11.019376939933167 6.408008264795382 10.283323546833035 11.224685675951008 7.1897694434556945 10.880873820241757 10.406987942507515 6.8659390648038965 9.688143957142993
11.677275463095889 12.179472805280481 2.100083206700211 10.92169241732796 0.1551207906296937 1.7154993222923247 12.454329119899876 9.920522073847776 8.707620011989844 9.712527091616584 5.532581544721605 5.864801133296487 9.882742296687114 6.492110400441511 5.894370088890971 10.116069600553987 5.300641457283723 5.030909095239872 2.560551579007382 11.876872162081307 7.698951201325934 3.419750943809064 12.272303829014982 7.897535607241553 3.4410590880561456 6.630007211950192 5.979290229746643 5.4810295828335045 6.448369341869789 0.03790225212466243 5.628511934892045 5.887708950542763 0.8237416129789137 9.241148449557096 1.1646619229759763 0.42812248436564754 4.092725876102967 8.795814483515741 12.18540909180093 4.71779810053818 9.373608872357577 11.715105230037775 4.587762182127103 7.999027360573253 12.434283217628721 7.028713209554091 12.17262420525268 9.360524047121977 8.52358263241065 11.836030510820626 5.692348885516147 8.008662890904338 12.381344039311632 9.410051422870474 12.257919269467537 2.9113298738619795 5.222032526307685 0.4237283825959855 2.288569676808414 4.957574086183054 11.930336233101258 3.3644872406650195 4.471236002092036 7.215075113960238 1.887989062408584 3.732736964057694 6.5898029304001255 1.3291657955415699 3.2190294747460846 7.768961889931301 1.2107575002433877 4.147277224864556 11.890869300824258 12.492946225896054 8.311226041767593 11.182426618751345 0.3343354060652225 7.7320944262779925 9.381869683704979 9.330780127293208 3.5897286974187756 8.818472351855894 8.971366097732021 2.911567325322798 9.365148101885275 9.046088323217829 2.128627371779586 10.381877764771687 8.903529964609932 6.259407968839951 3.0070353100169074 6.177262260842256 5.258775015507932 3.6016262653502835 5.519809155618662 4.705163183333605 2.2337308868047807 11.441311198269407 8.530118796305795 1.4504535022383018 7.741355033249891 3.669912306503395 0.861387667474799 8.22894286187153 4.221537044874034 0.741094757424441 0.6351489145856078 3.1469192153292744 1.1098156345051595 5.01125061377321 0.829696645667321 1.5007557195957821 4.345049296835271 1.4759982804441873 1.9346045334007334 5.1910763542842115 0.26908874361058066 4.147664645669049 10.996789566172955 3.626883602314127 0.2332073283919318 6.986946747340749 2.6630556254088855 4.642675956802574 10.414883517825379 4.178245894333336 2.7388276363004143 3.2484859533328128 9.239448796995452 2.2215833699671483 3.6138362694144472 8.481491236619346 3.5435131446764245 2.8685511185788357 8.853727645064701 7.17474585795711 5.673727692009899 5.453610187831687 6.937394376701641 6.497909215063592 4.883726681868681 8.185314280307564 5.822147352466405 5.483279122988621 10.579174933820767 8.871311550610534 0.9811544350777658 11.000826241006859 8.188313667181053 1.5376106858037846 0.08994536361329727 12.189220812619322 7.7432046551552105 3.5430757340907073 1.3323776389852648 0.596476819830083 0.9395504396534049 0.7691577708595272 11.190150039950579 4.005881128670138 1.4105866517115038 12.237198505149848 1.290898618013966 10.603419977714806 9.658413153440712 1.6416894103138704 9.726686697148518 9.78287521124522 2.812162645357233 4.996816064444541 10.76143767616648 9.302610885573019 0.15854259115453295 0.5069351237001762 9.63426808910912 12.44416869686593 12.12357173242582 6.135233352277485 6.087968014129412 11.929098986015944 9.718975773394586 11.88998198220752 10.392513090727268 9.724874567579116 10.985491875616145 10.166584274481671 10.36315659170299 12.268992006008837 9.764004068832849 8.82698311210942 12.419536232167399 5.040582117906876 9.594351248801098 11.998034894324977 4.515214512124576 4.811928858584526 9.055273945517891 6.254871396193798 5.877123614368406 3.1872359738870957 5.779443581855098 6.20449419416448 4.069893043528527 5.731428396988654 6.4657657857360284 2.7478632892568013 5.133713080328725 2.933100423585391 5.7359024824082745 11.432712955898737 3.898790519841257 5.729378815958436 11.662753431650076 4.255617578224059 0.9565794586276417 1.0886999509157933 12.013344264825081 9.199144535882937 8.159294599180043 12.431808723458092 8.348943331701722 8.323298573933387 12.018918125431648 11.53479208915983 1.435619034659835 8.415417243285434 3.6208473362312295 2.2875073939573864 7.66668279754531 4.249943738055041 2.0711141284804246 8.190750669015765 2.9468726083128303 2.952983859067565 1.2706277617272994 1.1213457775446654 3.784463890180082 1.7261096533572937 0.4597285235450433 4.376492869225686 1.3241918123096996 11.039168403206302 10.477483221364166 1.2663911277684956 0.23029167440199386 11.901317165100249 1.9810325427132895 0.6315384026366448 12.459203123569297 2.1241782812505767 7.315092168745808 4.204390549913919 10.32708896454928 1.581151785250607 6.740159694879094 10.8841125992922 2.0837240507943866 6.118436785785943 9.685632589317628 0.9568281577892352 6.23226351763487 0.28252349731475246 9.77318969113291 5.337671387726012 0.2205986558225003 9.39296741513689 6.207318616803683 1.1047629173678601 10.31206703529122 5.456572082369258 6.750570066819163 3.750058423252096 8.93068691326032 6.163765019911553 2.966681059123167 8.728665709885494 7.557267663889474 3.802622678209999 8.483340858524665 10.601370396684588 10.605382076627881 3.997932753455392 11.03449435866178 11.065575505138314 3.2575590986251184 11.288629908963486 10.249054916057327 4.624942081913067 2.5171104591230087 3.0640486555038207 2.361079854475023 2.829246653090817 2.508524714197645 1.6098084273377382 6.31353440446113 12.195906945858143 1.9294555859345763 9.374121267615132 2.670129179452198 0.10206413632672551 9.138756880163347 3.0865940468362165 1.0027225261872166 10.25592851097574 3.090743198677877 12.455641351657027 6.330106016937159 10.334524944506471 11.223455731691619 6.916836079172931 9.617484020062886 11.04569206965614 9.480037116585228 4.5038668317865405 7.295358702607309 4.277438117728695 4.302083079872534 3.955453936859596 3.7863385069760125 3.8159324574611095 3.257496611398588 8.323548522839511 11.609039411724002 0.9454042430348321 0.5663254832843299 6.794498587070479 8.78290462251443 12.233624235792274 6.308385456994972 8.984463420412926 1.0388376436330915 6.190097137171731 8.152558476159998 11.948282564560971 6.774102756330751 2.0724263602375763 11.354741394633315 9.415550298805204 0.7597871863689337 12.360535792876798 6.0719587866921625 1.499480980174549 9.902175824138265 7.725870698515502 10.720371070890286 10.196690620224324 6.7428591430652345 10.670956172149545 10.296245269533562 8.159806994437597 11.487939166706862 1.6563864059939688 4.538922165870449 6.9614144665801705 0.9353063072274174 4.247219294978288 6.511656404900418 2.1807042263705476 5.050705048604903 6.390468677766135 5.13231336645443 1.797007660579402 9.061122749921195 5.387723656177368 1.9135213431691633 10.002342848267508 2.476793700565187 11.739125319916303 6.273242640793921 7.379304042729096 10.439253536172481 7.198341034695228 6.90718805139654 11.560311872475102 10.086550634740727 8.20930937529548 10.200402361480267 7.725533267492234 9.32428145573398 3.821868743981557 7.921730661354367 9.27180468289322 2.9939754796719216 7.398150190250854 6.611635967350069 10.637400531502381 12.101738695475879 6.8373773219160725 7.725858201070197 3.977186994247089 6.1992952569170985 8.40848116114049 4.272389149824988 6.430822928659876 2.833495784494927 11.801974972361215 2.6808519875249233 9.702116719676516 1.7283466960671048 2.3489323376373905 9.012432703008214 2.248840298179984 3.2680819475729446 9.329342921082995 1.033011334631338 7.531347962324402 4.041748796698951 11.51163432300743 7.30780615813229 3.9405194897186795 10.545206877478497 8.413767580505015 3.650741225403675 11.696833965000101 5.34956895565752 9.51403016781811 5.537980441093886 6.973149567722697 10.941688329817891 7.853844538451055 6.215929356619658 9.59332645828599 5.909866921070666 9.653226713638636 9.627369499300094 8.697072168151404 10.619929102964305 9.490884899111016 8.411792984146635 9.51449257329444 8.944734041784494 9.376145853754737 2.1874403493905925 11.612151275605248 5.29429275506817 2.9884016190653537 11.381748373940027 4.8368237696344885 5.594406406651407 1.0012265819840638 8.69148581009953 5.497163784723816 6.087805547340432 7.804417142265009 6.055849579692462 6.3399789987290625 7.078115610849524 5.872687021284703 5.2738594319925225 8.169342545206232 5.0946585637468305 0.21151426282941896 6.920435343421119 5.223394747846061 1.017443267013397 6.350464355340969 1.402313342918795 2.2938061063917146 9.780063286051323 7.570277504453234 11.060226598547258 1.0637450521283607 7.7670247859088395 10.385302064785588 1.6852055148700806 4.799581382621994 3.667137873645417 4.517139118701732 3.7988984395087506 7.928479281819718 7.25772889479032 4.354372391033701 7.237320566605286 7.603858139991011 3.393843739689298 8.56729869609176 7.952549361479472 9.663874537039524 8.392859354507731 5.908279745516778 3.7129410106926635 10.52678564309715 2.875062287583369 9.064284603583666 8.47779199280871 6.628420036396304 0.37675298517901723 10.493817382379378 0.3345628595697954 0.6595789206701799 11.290467033423496 12.327642516830863 1.1703807539480964 10.113370152367846 0.7539083880968943 12.01835574039287 3.539763911084563 12.095040064791752 0.17948456025414283 4.055833417559046 0.09662524812946453 12.458653235975824 2.9085929333399205 11.508697423360472 5.631948732351251 0.27811939758884535 2.3286614813507236 5.129551431041758 12.220764364572187 2.996824897201737 1.9527633214306512 2.3208130856984264 2.7561615929401224 10.71109796647308 4.673194718240329 3.5473498603854297 10.017914665119042 4.30064587366232 3.000774089918498 11.021522010433937 5.422816482597195 3.0587247438033764 0.47704873299491457 1.9707846375622007 10.103809606708598 0.059032932648396014 1.502992762305593 9.363423454433018 5.823247127653351 12.080393058892877 6.680596870549714 5.918790097019298 1.9714345047181232 11.696908949671938 6.546686744093715 1.222701308722529 11.67651311893221 7.577463535504303 8.275683307316742 3.5546483684442545 6.297787623375309 5.383786960905913 2.4341774120710236 6.572656435440011 6.142419383328553 2.8953581387606477 5.599530359226952 4.948825874468709 3.002886158175247 7.066343017371078 7.774510755647257 10.252079297821428 6.81923103133146 7.176083084604876 9.528677173716984 7.9323159975287245 7.447090186069959 10.584748794427334 2.5581520695085898 8.385623333675438 10.004479911414869 1.9616240101527511 7.683266907466645 9.733547794621623 2.9499219849675447 8.287618367584168 10.87837627189665 10.981180256985503 4.772611895651201 9.867645382757217 11.464506456757727 4.2983838360618964 10.559541447244717 10.641474698672205 4.191793125045264 9.210842144689545