-29878.858750436513
-29914.56654863574
-29915.310293989147
-29917.516964700473
-29914.407634698193
-29916.8441101722
-29915.572933504227
-29919.053250044493
-29917.409127754956
-29916.27896864159
-29918.62218321996
-29915.879554915107
-29916.50203790648
-29915.826944697652
-29914.62781969245
-29915.594426415773
-29915.562655220314
-29916.17213974179
-29915.086790022404
-29913.97900247617
-29913.872111126242
-29914.885368093666
-29916.033623865755
-29915.868854718683
-29915.4114755744
-29913.66433370669
-29915.001279881286
-29916.718642018677
-29913.407306403475
-29912.975425278273
-29915.6654173788
-29913.864327990173
-29913.840109586417
-29914.654295008382
-29913.079889236702
-29912.159113558773
-29915.85138909195
-29914.51824965389
-29916.259424201187
-29914.369582435058
-29916.209659886314
-29914.752459259333
-29914.53624603867
-29914.365910939086
-29916.74366628756
-29916.725178465193
-29915.297596341097
-29917.064467958742
-29916.025346162787
-29913.90074280829
-29916.257268923528
-29915.12643401544
-29916.734640679704
-29912.574781869353
-29917.805576120885
-29915.294026343592
-29917.46202668519
-29917.34283334073
-29916.98666789113
-29916.299255408543
-29916.17359350997
-29916.3489496541
-29914.70328964926
-29915.01511564547
-29917.67274565534
-29917.306615805144
-29917.902965799793
-29916.17184272953
-29915.35078711342
-29910.978720053878
-29911.82105769331
-29913.53273768557
-29915.522821563933
-29915.781312023253
-29915.8013755208
-29915.918750056368
-29915.64792685365
-29915.86764952649
-29913.2556447079
-29916.321382345337
-29915.300169721668
-29913.79467705175
-29917.671910537967
-29916.301041971954
-29916.375277076168
-29916.388051596376
-29915.0006450397
-29917.297273184664
-29913.57543778913
-29913.21353332263
-29914.975535191013
-29914.210713804463
-29914.856437222454
-29915.336795291954
-29916.63671058271
-29912.93547406871
-29913.9054759564
-29917.23437747228
-29918.019013372228
-29917.366497720705
-29916.47825420458
