6.592417520311073 -43.6274276919862 44.23944460385826 -6.104673079967551 43.66437033064882 -44.445008415368136 0.556937454399415 0.504157591594222 0.4589462851649063 -0.7178442893215379 -0.4744078711356153 0.15943950634797704 0.7982306009900898 -0.3072450280014515 0.0038923930758707156 -0.13714572794678317 0.7984913108506442 -0.5109406759543266 1.0441879858256533 0.271499494970726 -0.09436488533583104 -0.4736542807990423 -0.3413594531866573 0.2310041059598409 -0.9834947817106546 -1.6333215653416389 0.26754642386024885 -0.1949407845783804 0.2940794371537709 1.2603128606808165 -0.5248554862632058 0.29484614011646637 -0.9858969633942438 0.3528620545096181 0.15613126791035045 -0.012463679684649502 -1.1540059724917608 0.9103530674196579 -0.6557953425095931 0.7235379972722055 -0.8572165926059947 -0.4819270623307958 1.9554519950953548 0.07761903333605988 0.40217272781928803 0.36824213651011417 0.4293140641207703 0.039744883998105746 -0.14172717666987852 -1.2954752675145624 0.5409788741876296 0.11031626645876486 1.1006869493536464 -0.6306419831724172 -3.5961292294711167 -0.8403648111559785 -0.5557064102057914 -1.2084719647501252 -0.5323772485615477 0.24266585856848533 4.171424874662745 0.39509345237500343 1.2472123187431166 0.06182603216786127 -0.2642286723409256 -0.16399370137756272 -0.17683301923407613 0.052793746762263914 0.27462184264979156 -0.20557461014314274 -0.13482607867467103 0.06035227583581218 -1.7318945752215464 -0.8745872226739584 -1.5041442003123127 1.5339281164429646 1.0151460900673486 0.7355172811212687 0.45425916410188216 0.6539122665542674 -0.6054518570600347 -0.26912405276001394 -1.6757655934384625 0.7501923666349403 -0.5511061924296187 0.4874698465258959 -0.5900062119289258 -0.014468111709187985 1.4033255889313379 -0.10847972747065834 2.8433508472765547 1.286031091382527 -1.2060970367600454 -1.6389489388307452 0.4530589731461939 0.5740142073760437 -0.21177431119595141 -0.14408384982751316 -0.07968182940235954 0.11331288719324356 -0.5932802546945073 0.45396040191454073 0.5587097158084894 0.125270573775752 -0.13511867021442536 -0.06538058228833901 -0.7147245127456336 0.5700899326209731 -0.11849108896007335 2.5869727813282997 -3.6541621131451323 0.7588266452711706 -0.27386131033468314 -1.3003017423689283 -0.7731520607549072 -0.3704445434780717 -0.5492848229501637 13.457164487693335 7.3246815846023665 -0.9449647439562565 -0.6385900343749003 -0.40145179049286345 1.3082389949381341 -12.788467092410093 -6.26205030446986 -0.21453207644674663 0.4963892605027128 0.2587357675471544 -0.32693864977563697 0.5096430401888254 -0.03422755372430234 0.3013083508020424 -1.2974370192266234 -0.19631452499745547 0.6412932922386763 0.7284061239977843 1.5994069148720649 -0.3936837165116704 -0.506990690167643 -0.8959412628697021 0.9651733576936475 0.19539304162445056 -1.1041070307787888 -0.06902692079167466 -1.0318261218261906 -1.447635980812939 -0.5320478902465868 -0.3548022089551245 0.744521541502408 -0.26300636989805026 0.165479799004786 -0.22473395668041296 0.5641622542826285 -0.2696616704310388 0.951716203747477 -0.5170902404954901 -0.22785399036663337 -1.0071651287444008 0.42938219835454433 0.6116638994080176 -0.0379422835717282 -0.809761998668457 10.22291519995973 12.099772428069317 7.514596633831381 0.14490223196375046 0.1593906553879126 0.7675118317499943 26.281134143885414 -32.133654765950276 -60.40806697463988 -1.222899453029365 0.569645903105019 -1.4626530230470616 0.7975520868658263 0.2934024656914043 0.6086063435286163 0.800336591589499 -0.4574234207624768 0.5847542195013672 -0.12133730015961683 -1.9249525409549169 -0.510657854606585 -0.33735470290263836 0.029213388339162594 0.5889602871629147 0.37841162084394825 1.6523060768639415 0.34142733031011524 -1.5911068796468018 -2.138471859866433 1.3011363224550818 -0.10785160696835619 0.2978409610787322 -1.5729338082822006 1.4533276318810775 1.542194213106499 0.2513672429972252 1.9599241719340956 1.6291921165542973 1.67576842165194 0.5708226970219396 -0.04288342962708744 -0.23033587624822266 -1.1371076540745255 -1.3100886465523631 0.054245134496809795 -0.7298726812409817 -0.20080675644085416 0.04575869429235345 0.6830323238486753 -0.1505756281994439 0.12151573471901007 -0.3582171481739444 -0.378483097511832 -0.3581461857266929 2.420380208875309 -1.4477604222059453 4.555888615238045 -1.1297170180374092 -1.1779205743258294 0.6477645017853166 -0.2717848874216287 -0.5853563718617403 0.8733554071493862 4.96833881372394 0.3523586325106383 0.95204607628307 -3.5346132723445063 -0.007289848793193897 -0.09493052803131394 -0.6843896092075181 -0.12769178162273492 -0.28303552063478354 -26.175601157747902 32.83505607922445 61.12237239757023 -0.5495061949323504 -0.2891056380882634 -0.13330038605876396 -10.053223676866441 -11.913969858346778 -7.638725637803522 0.3139208973597303 0.26575796450125844 0.23745114713676527 0.2830182942436029 0.6845415614043502 0.13358783539219574 -0.10444746638281367 0.22144217330301863 -0.5824474257450615 -2.6138078992432727 0.3837682571701713 2.508686546721886 0.2906521566397769 0.3266110912328891 0.14760086184183613 0.14242625961943214 -0.20804826849461588 -0.010596030348291428 -0.35930009682547803 1.0247584163461319 1.4899116016526985 0.7161635591850053 -0.41779732173042244 -0.7198163254462442 -0.38089787760091176 -0.4632942777209569 -0.5666479968189596 -0.930025606147921 -2.3649806490590817 -0.6006986586457654 0.37211216098848177 0.8268315525562341 -0.19412214533182698 0.0768019367514032 1.2809629328310004 0.9588327601876001 0.7991937362343075 -1.0831386560572378 0.09311224387565255 -0.8420540259329433 0.3089188161594486 -1.2758333249139189 0.24452785147788852 0.2623432823927546 0.845976758026117 4.883368482229132 -5.607120395284356 -1.2830586390177645 -6.151603168860187 5.17815343009036 0.9363651752127036 0.10401474972076927 0.6887291171231364 -0.2790649660228097 0.2141242994853667 0.5367712638641853 -0.35135770204994976 -1.4863189992054338 -0.7048990420147795 -0.013383620395757596 0.8282844829526768 -0.25118623733467066 -0.06592694171011226 0.5539089519857364 -1.481432103426778 -2.474605802988093 -0.3772805925632986 -0.9735279003059298 0.7274129068465794 -0.20454565465799612 0.029793686322664818 0.21373529157706414 -0.13326439061450598 0.6505430929717184 -0.5853352888158176 0.8000650830956673 0.08611472951189686 0.04628834154357834 -0.9253405419674257 -0.8617628172157803 -0.22844071610803882 -1.1141567017053071 -1.5062645890894253 -0.3915862105526934 0.2182825446281144 0.37341905272536335 0.6010591273089777 0.6596591963403736 0.6932234054490641 0.27875411965061025 -1.358175988977893 -2.1348692301168395 0.06079964778587593 0.09484413896509472 1.688263211684841 -0.9344671868590423 0.8730936688475673 0.8984079792426399 0.4377686226460267 -0.19897433121780572 -0.7817104918478794 0.3551799040095173 -0.025886123738142513 -0.71216189422478 -0.5337903268589904 0.17474374080521518 1.54435188287945 0.15951561100155107 -0.6045956797073264 1.6177532785897364 -2.3018132723719775 -0.12388886293687695 0.32507228599085947 0.5006398082489507 0.5646564203102276 -1.7737235954421906 1.8117934057307186 -0.047350207149189416 -0.31855145415320624 -0.5096628376831674 0.6816665538494001 0.24817444709154035 -0.15799351793006983 1.1722788026590198 -1.7654852666927983 -0.7711504569438461 0.0508880450991188 -2.344624711110549 0.29793763455759653 -0.6258628166162189 2.459634526390241 -0.23426066522392555 0.8077801923517378 -0.18467308410378516 0.2527630949034873 -0.13060149907036217 -0.13448463617485226 -1.6314616293147646 0.13937667415983093 0.44859990893357576 1.43987562014123 0.2984991634880214 0.3620432067882539 0.20124667219175016 -0.6779037443728583 0.5405924373824883 0.7230523158850386 0.6277872873324414 0.05730089060399809 0.41735663464857803 0.40174129670882425 -0.030523108289521626 -0.2618105498177362 -2.990112501046547 0.7063925958411705 -0.32175042070647814 -1.0564310648590645 -0.47847561344708567 0.1757492992515941 2.959203984393149 -0.01923416563926365 1.0139914076376149 -1.8456170391483826 -0.8691105158301032 1.093996167597032 1.8512117596273407 1.2117094978508165 -1.619302368244411 -0.4264526834125752 -0.3006835727338499 0.12373665362972884 1.3480003339964721 -0.9313399540839703 -0.4762438959030896 -1.006535722690518 1.1043165756864337 0.3996561320450214 -0.35074012307060887 -0.07527444436328327 -0.273856939459309 -1.3663065885048276 -1.4872620798449934 0.37390653388474315 1.5225239883710813 1.4052004373565476 -0.8262774798249769 -0.37272665464402904 0.054559837523751195 0.5786429643973067 -1.096785814527027 1.6526500904669217 0.7268169251337935 -0.17979467296556131 -0.11149640280979507 0.14697428400143075 -1.073291588059829 0.1579500662866441 0.4770072564316753 2.2789769912037525 2.9927805347970136 1.0138106590853766 -2.510198098270406 0.5435088396983349 0.1788027413659372 -0.09584224121230592 -0.4428511793752567 -0.11869600588202782 0.059404310100246084 2.0663873831953574 -1.4286969778165912 -0.501394427026788 -1.4081417793730586 0.6442863134287291 0.507384583171952 0.1171381744766047 0.42909860567585456 1.888539806653838 0.9921344596635236 -0.2465374257087496 -1.668872465863055 -0.6101117244295492 1.3618398109827257 0.14335159964717892 0.26945958172256174 0.3429103426135449 4.68800809361483 -1.1732432234548182 2.2311858398624023 0.23004251337751996 -0.17247062850032233 -1.1762822673914581 -4.499574256917032 1.3029036987681497 -1.4040940916662463 -0.07813788195400737 1.443408572995153 -1.245307902631552 0.27503707581033926 0.12615503326323435 -0.24649397406532386 0.21603900000957632 -1.4465054667529218 1.8103690145793663 0.71061049057726 0.7155161554089935 -0.15496938639176536 0.23380043775805542 -0.3807022166503379 -0.18125788777464913 -0.43403769484868476 0.11888523907469849 0.6651199623446287 -0.887865170729787 0.5874258527962593 -1.4450833895944146 0.06930511415372581 -0.02197161917508474 -0.5062586970976249 -0.13089640460296167 -1.1856148576462937 -0.05421556681045502 0.31630251021802946 -0.47226254265783824 1.2265157096257135 0.16388880036858225 -0.08495567620678916 -0.7259826021579562 1.3263390469729543 0.024663821295267202 0.6756098061323591 -1.264316839633887 0.7766911842564171 -1.3366931365137689 0.6077977315843919 -0.8519617719649585 1.0804749931821456 0.2515762736842377 0.1994456144272694 -0.033747014543458013 -0.1768204208285858 -0.5537099486010528 -3.1116169229116477 1.5968111291204306 -0.5145083387009269 -0.7344225053951933 0.17033789842803568 0.04970970852030149 0.42475472688486204 -0.3559453214206322 0.5335686977664875 1.05311074223658 -0.27038826418441825 -1.0253572262723956 -0.7171218093332166 0.8655343684430706 -0.5946241703169114 -1.1666732835467841 0.22761513488294996 -0.4815120862805643 -0.2582984228994197 -0.10525247878261228 0.5609167507621372 -1.1273994256478264 0.31724764774011815 -0.18129568299112003 0.3874804159144359 -3.813134964269336 -0.16076542424825216 -0.38995201738338003 0.0023895832780991104 -0.2292899514822116 0.1080521530149365 2.586565775697868 0.5493267319316927 0.36304182325609735 1.0396739000053836 -0.0714617554854124 -0.326088900180832 -1.4870818455133872 1.4736473172750362 -0.30625078240898224 0.47651694705881803 -1.074925009898194 0.6240422184677124 -1.0360026218013836 0.5208962445051416 0.43382300773471744 0.7997377816632356 -0.7146041851176855 -0.6701688376224458 -0.3499549081651521 -0.48730015371725116 -0.14787417010788081
0.012396831002456067 -0.05648070869554789 0.5932558292144751 0.0899364172508322 -0.40170015905824363 -0.37723868358176965 -0.16974397359777862 -1.0602136718299484 -0.4670766275815247 0.26506685197150476 1.250327981553963 0.8508081179764897 0.018111879109362353 0.10388542323175658 0.35638600850247654 0.503177744179456 -0.9182126726733928 -1.197822455456079 0.26701009174080464 0.02999217548671609 1.5416015738278224 0.05397131201013285 0.056132581327509784 -0.16480848396937423 0.5604727212461831 0.3050199953256747 0.09183414849417733 -0.3038159477152445 -0.8911965490958653 -0.0884120101865058 0.07024382391791129 0.2895764070770948 0.5120218248336472 0.11214123548264558 -0.5135899406517155 0.0946883301135208 -0.11241068709394834 0.1437974289353459 0.12024792375018002 0.3059242523074989 -0.042708080391487734 0.07006744624104708 0.4122486239980513 -0.2353076184312012 -0.18972967269108615 1.7293859498670796 1.367381052515929 -0.685441190400484 -0.6294883291839481 -1.887747906880162 1.2523146729666883 -1.4667001965332418 -0.36129218755484227 0.10457396465834895 -0.4444298367162862 -0.07273676554309408 2.4674432238013826 0.5738316590515925 -0.7475431019375512 -0.8714245086752607 -0.47760529502699034 0.790938952424683 -1.4368602303536737 0.2867988443319577 -0.18125325978895881 0.7860985936132462 -0.36629915385113043 0.04215323632928224 -0.48080657557310735 0.315005902893793 -0.17845152867410558 0.3476481144088464 -0.8176642842346693 0.009072137504597278 0.581710804689353 0.3486744987908318 0.4886039601303392 -0.348001126872891 0.5644579311461762 0.6180615754042452 0.7021932130478423 -1.6951535110467708 -0.22798485951754285 0.3070768778547034 0.5059820463974706 -0.09140734536940387 -0.9152954990265978 0.8890080260849786 0.3460409178227266 0.045851511116475875 0.373398483900073 -1.2451353816094297 -1.6712826179664444 -0.7295199258872532 0.9834292185800418 1.3218311318002718 -0.05784596447419069 0.02288873167271542 -0.4515610484444288 0.20890161763384668 -0.16296088923767418 -2.174324093678352 -0.40096893731917393 0.8765091222870196 1.036119864105538 -0.4585115116203329 -0.45622940045437554 -0.02885831899258901 2.129159324216256 -0.8455188445530921 0.9262118888287855 -0.4821422636653955 0.6372008673368574 -0.3024627761214597 -1.079918092237411 0.41843418398347293 0.06040729744346371 -0.7765034937256433 1.4151187249115242 -1.209736947505478 -0.6534026739077005 0.055207755520395245 -0.3952595456392225 0.7323247423259001 -1.2575314412809375 0.844614844681584 -0.7130661512066041 0.45961220088367943 -0.17262720868284462 0.6230600570601011 0.03698660452667824 0.179378154253433 0.04687301040245476 -0.2414137313289391 0.11912383744806582 0.5131788212562259 1.8934074191587846 -0.5065204353994438 0.18478158465719144 -1.2132588446158075 0.8334637131607711 -1.5103521288952375 -1.0629938056782466 0.3547970667488019 0.7058866027390295 0.023713541566855935 -0.21262946010739509 0.056260365154625694 -0.5488425932064226 -0.2534549787641893 0.5121814903399632 -0.15640123374228548 -0.4076157532117302 -0.4399736007171455 0.35334902144836566 -1.6216063337872395 -0.10909370690557339 1.3997353004769184 -0.7284729726799776 -0.24158316702726776 0.4955243413992563 0.23494689265767282 -0.9428584962465311 0.8955357999011675 -2.1844781513932183 1.1273919694486585 -1.486685124295601 0.6559781479443606 0.36216533418841496 1.1756960558706848 0.9550689222697939 0.6003122218406242 1.1296421989354157 0.007610208247090119 0.0956568646743772 -0.4727857621511599 -0.42308016739591653 0.2340629473908227 0.27496379937024257 -0.33098530904118484 0.4111985854669821 2.472856167286838 0.23042303664539024 -0.020909753569473666 -1.970095970260775 -0.735115931917792 -0.10064300503505894 -0.284921939024219 0.4248763400643909 1.7039860217367362 1.9541615584187055 -1.9641564648478884 -1.2158204346953965 -0.26302539606144376 1.1909581242360778 0.3693019452331962 0.209030172791911 -0.8684137468733948 -0.48592692751880834 -1.627231650393817 -0.3165112837947259 0.7747482015974335 1.798877983220631 0.3274796098807715 -0.04610193656438512 -0.20853369277146666 -0.03940935503555794 0.49552819805399817 -1.7614175243813277 -0.9950511190896864 -0.7366750488747957 0.16544277511926345 -0.1370462262544414 1.0635887589497683 -0.7263870366852264 1.4375521142143757 0.39037547807404377 1.8388064439844525 -0.13027959695456917 0.4642952081816456 -0.801468134090781 0.5039241354271773 -0.055961088746652 0.34545033542657927 -0.05803056968117103 0.9167620562697953 1.1623684855238434 -1.0331263286948529 0.43424955374917473 -0.8061583404775987 0.9627778608782774 -1.0790891685782127 0.0712745791752708 -0.08284017252568314 0.34741645801401455 0.12314504279231694 0.07459233069459413 -0.35182307172214244 -0.06176561124357104 -0.3520783822660582 0.01185895622111506 1.0002198077748192 1.8137564429943605 0.6837630313671127 -1.6753513887191793 1.4603194898178786 -0.6039235933409663 -0.15852985004951406 -0.8485494038493 0.3538863820090744 -0.605010655757558 0.8147720502885386 -1.9165198368065315 -1.7397660075498234 -0.2127328184544788 0.22941207888237267 -0.15845220273404323 -0.33570688288657025 1.4952898352454762 1.4475488204157716 0.22488513754629655 0.7612103150119987 -0.47049799455824776 0.1294848689674157 -0.504617047729144 -0.47675323143934023 0.9023805907371427 -0.09057405083483111 0.6057372495109374 -0.841337459481893 -2.5919838613896458 0.8529048526045183 1.3452338269949284 0.5794688027327116 0.27422923519706316 -0.14991485468699342 2.297270904416934 -0.3054992489549384 -1.5257707774431528 -0.17709090088115306 -0.04475647828008421 1.1734386272950759 0.5243633771181356 0.21753769604228987 -0.16805398748986541 -0.11774366927108755 0.7428122721207853 -0.9034789660076441 -1.266337983828974 -1.2052958810149885 -0.6605979061045592 0.5689527336927362 0.6204658139703637 -0.1822498193742732 -0.17867701442135034 -0.13943529531190824 0.017479644842002155 0.9472473693428461 1.0898314946963812 0.6740388621008134 -0.6074802003439731 -0.41380851228600346 -0.4762320688285476 0.16961824665319175 -0.6654012410304734 -0.27649823373689797 -1.0239881138390106 0.7614000624253016 0.3987271924728488 0.46980431092533287 -1.2763195205217182 -0.5242132246935166 0.27386105322436705 1.1462697801897677 -1.32554637586833 0.8055700720742965 0.21293105050821393 -0.14809657053133204 -0.367252004682703 -0.21313982408491033 0.3615007040212226 1.845167353205474 1.517141126792613 -0.35427616124832534 0.017704102147982414 -0.5413239162318741 -0.8225360105046738 0.5067052977167402 -0.08497007438449238 0.23324430814426927 -0.48273387450280736 0.38233538137838674 0.5054585697938327 0.6268730030482882 -0.5843384721201872 0.4103660622633578 -0.12705774758316182 0.3680860705482242 -0.18304763268522023 -0.22602156514358493 0.815148459791351 0.244164811711515 0.06505328085590732 -2.2850939027347676 -0.6140959058882779 -0.391605493826403 2.2526856616073916 0.2714179910005132 0.11939997392758793 -0.4245557235001785 0.4622480958446297 1.6869367795639334 -0.04067150957743318 4.498675142141529 -3.2320314541466786 -1.4551248329908166 -2.2619313485753754 1.3335592188704775 1.3199395712045139 -1.8269773125600082 -0.01640466661026852 -0.1463338222039544 -0.40522385594078597 0.13418870220098825 -0.4965496973399771 0.044212947071788376 -0.6864184667120888 -0.1671042219820864 -0.9347595212884804 2.6307923496164114 -1.5136973912183869 -1.272564167244344 -0.41938934880789064 -0.7216842318929184 0.7439744107496864 -0.676293462462945 -0.0692089548954937 -0.8062501288604567 -0.5909346372804661 -1.5365845802292053 1.084800617140693 0.6055565009586991 0.36617394112717583 0.28737888520514376 0.2921248845305614 0.1507941719681532 0.40202566071846246 -0.12019907279011557 1.3295320999889553 -0.676105771932171 -0.010567491103201156 -0.6142123768614841 0.11404025227757134 0.3543687209621316 -0.670811099192135 -0.08799214904026781 0.5964504248923728 2.0923848357003836 -1.283593685585628 -0.8578819941041355 -1.962232508352298 1.423208186787878 -0.000965706347378982 -0.12139309309821675 -0.16675815149657733 -0.8875928909050069 0.36988815675396947 -0.7206331649205847 0.3905048045630565 0.11057851898121601 0.4556483311399249 -0.38946479333431633 -0.16207822952240472 -0.08926741620826563 -1.3819237262167943 -0.6926374510386072 0.07598921104212074 -1.5165826831859817 1.695369997932951 2.106265193226901 1.039610650867616 0.3900201516171541 0.7384946185820379 -0.42685737505016164 0.12501783433499758 -0.1998438783069526 -0.7373803024719365 -0.17724413862956573 0.40706810823837636 0.0865675007785993 -0.17892872542084023 -0.1413152859434405 -0.7055988962952816 0.5257484303911203 1.3794187004067533 0.9183944496668958 -0.3655355362122285 -0.9780116471088962 -0.4933178206662408 0.7217048007182087 0.6414961522781017 -0.30225014589002136 0.530104650477287 0.8887367747014628 0.8664162568273918 -0.31739214373778246 -0.8453028718875442 0.14787879809357113 -0.4838121951686506 0.11634113249660608 1.236122122367226 0.04676502406968075 -1.3934893195672067 -0.05546717982936898 -1.0230321776836444 0.8730551023001479 -1.4286057036543656 -0.38158307659339447 0.3048230488235202 -3.440957240150242 -1.0089492172280172 -0.05328199925259211 0.437165441844389 -1.0675382305158196 1.0035671269804975 -0.4607925943450258 0.3046613264346753 0.020565482856177486 -1.9179324008833423 3.0957511595239846 -0.21776935243712175 0.6411876198987474 -0.6692157296805571 1.537046093246656 1.335949573479525 -2.265171195668912 -1.123043976892608 0.20996656856325133 -0.15957217527109938 -0.8728255027878452 0.03948494546849974 -0.13561335046265677 0.30075582073268203 -1.1433937441935533 -0.01607273719214651 0.8826815696463186 -0.5567253383886089 -0.5280333697705551 -0.0070209114025233926 0.2292326158817149 0.18707038069136817 0.3805492360122414 0.14296593417298603 0.28320727032595744 0.039253289073667874 -1.4621184906998304 -0.7331521233232019 -0.31543630556299224 0.43569142840202385 0.36582607086945385 0.06947532118300292 0.08695548024563733 -0.15937574298957713 -0.018949544519309303 -0.37141693469367004 -0.1907156907534393 0.5272553539539501 0.300691800263966 0.005636629460487067 -0.826345614058751 0.5789399268124352 1.1021653336713857 0.6649790658913902 0.2025121691677351 -0.7207619771889652 0.8022623478573022 -0.8756634864572725 -0.27934547337770604 -0.27722842703470324 0.7128373230252498 1.2072211230621595 -0.7264777966268199 1.6107501077990258 0.378810913164896 -0.6693525123687375 0.062014751139899654 -0.14723422253103677 -0.12870736737144284 -1.0130647820582876 0.8950341776744005 0.06974065902924763 -0.22002883789525976 -0.35163872362547827 -0.3760420921705072 -0.22154835986357976 0.9016051460236988 0.04531080812165745 -0.19845419704827755 -0.8678990120205052 0.12376390732323846 -1.025442329787034 -2.2971665176285856 -1.1926784493612945 0.5247734680723607 1.8438890007136826 1.0997271565435383 0.5244824191945031 0.4554220740617318 -0.26781818946439684 0.7082563885227867 -0.9312548505693315 0.007895600697992854 -0.01789513511286596 0.27237906936220185 0.1911502071876966 -0.460827047127387 0.29462065436922164 -0.36791303530546965 -0.05466011054704135 0.6925826865412718 -1.39204461670088 -0.04023750736380812 -0.630505714704869 0.5952026685282007 0.14558023186738153 -0.4320240068527657 0.4063019194963132 0.6506577641727117 2.256345884067798 0.8866104723870796 -0.05233840439240019 -0.2329190635943666 0.1806847888799985 -0.6977089520242435 -1.0339884195848321 -0.8854861289746492